----- GAMESS execution script 'rungms' -----
This job is running on host cpn-p27-16.compute.cbls.ccr.buffalo.edu
under operating system Linux at Thu Jun 29 14:48:26 EDT 2023
Available scratch disk space (Kbyte units) at beginning of the job is
Filesystem                      1K-blocks    Used Available Use% Mounted on
vast.cbls.ccr.buffalo.edu:/user  10742784 1692672   9050112  16% /user
GAMESS temporary binary files will be written to /user/mrecio/work-dir/gam-scr
GAMESS supplementary output files will be written to /user/mrecio/work-dir/gam-scr
Copying input file tme-00-rhf.inp to your run's scratch directory...
cp tme-00-rhf.inp /user/mrecio/work-dir/gam-scr/tme-00-rhf.F05
unset echo
 
Assuming a single but multicore node.
 
/projects/academic/cyberwksp21/Software/gamess-2018/qmmm-reks-2018-6.3/ddikick.x /projects/academic/cyberwksp21/Software/gamess-2018/qmmm-reks-2018-6.3/gamess.01.x tme-00-rhf -ddi 1 12 cpn-p27-16.compute.cbls.ccr.buffalo.edu:cpus=12 -scr /user/mrecio/work-dir/gam-scr

 Distributed Data Interface kickoff program.
 Initiating 12 compute processes on 1 nodes to run the following command:
 /projects/academic/cyberwksp21/Software/gamess-2018/qmmm-reks-2018-6.3/gamess.01.x tme-00-rhf 

          ******************************************************
          *         GAMESS VERSION = 30 SEP 2018 (R3)         *
          *             FROM IOWA STATE UNIVERSITY             *
          * M.W.SCHMIDT, K.K.BALDRIDGE, J.A.BOATZ, S.T.ELBERT, *
          *   M.S.GORDON, J.H.JENSEN, S.KOSEKI, N.MATSUNAGA,   *
          *          K.A.NGUYEN, S.J.SU, T.L.WINDUS,           *
          *       TOGETHER WITH M.DUPUIS, J.A.MONTGOMERY       *
          *         J.COMPUT.CHEM.  14, 1347-1363(1993)        *
          **************** 64 BIT INTEL VERSION ****************

  SINCE 1993, STUDENTS AND POSTDOCS WORKING AT IOWA STATE UNIVERSITY
  AND ALSO IN THEIR VARIOUS JOBS AFTER LEAVING ISU HAVE MADE IMPORTANT
  CONTRIBUTIONS TO THE CODE:
     IVANA ADAMOVIC, CHRISTINE AIKENS, YURI ALEXEEV, POOJA ARORA,
     ANDREY ASADCHEV, ROB BELL, PRADIPTA BANDYOPADHYAY, JONATHAN BENTZ,
     BRETT BODE, KURT BRORSEN, CALEB CARLIN, GALINA CHABAN, WEI CHEN,
     CHEOL HO CHOI, PAUL DAY, ALBERT DEFUSCO, NUWAN DESILVA, TIM DUDLEY,
     DMITRI FEDOROV, ALEX FINDLATER, GRAHAM FLETCHER, MARK FREITAG,
     KURT GLAESEMANN, ANASTASIA GUNINA,
     DAN KEMP, GRANT MERRILL, NORIYUKI MINEZAWA, JONATHAN MULLIN,
     TAKESHI NAGATA, SEAN NEDD, HEATHER NETZLOFF, BOSILJKA NJEGIC, RYAN OLSON,
     MIKE PAK, BUU PHAM,
     SPENCER PRUITT, LUKE ROSKOP, JIM SHOEMAKER, LYUDMILA SLIPCHENKO,
     TONY SMITH, SAROM SOK LEANG, JIE SONG, TETSUYA TAKETSUGU, SIMON WEBB,
     PENG XU, SOOHAENG YOO, FEDERICO ZAHARIEV

  ADDITIONAL CODE HAS BEEN PROVIDED BY COLLABORATORS IN OTHER GROUPS:
     IOWA STATE UNIVERSITY:
          JOE IVANIC, AARON WEST, LAIMUTIS BYTAUTAS, KLAUS RUEDENBERG
     UNIVERSITY OF TOKYO: KIMIHIKO HIRAO, TAKAHITO NAKAJIMA,
          TAKAO TSUNEDA, MUNEAKI KAMIYA, SUSUMU YANAGISAWA,
          KIYOSHI YAGI, MAHITO CHIBA, SEIKEN TOKURA, NAOAKI KAWAKAMI
     UNIVERSITY OF AARHUS: FRANK JENSEN
     UNIVERSITY OF IOWA: VISVALDAS KAIRYS, HUI LI
     NATIONAL INST. OF STANDARDS AND TECHNOLOGY: WALT STEVENS, DAVID GARMER
     UNIVERSITY OF PISA: BENEDETTA MENNUCCI, JACOPO TOMASI
     UNIVERSITY OF MEMPHIS: HENRY KURTZ, PRAKASHAN KORAMBATH
     UNIVERSITY OF ALBERTA: TOBY ZENG, MARIUSZ KLOBUKOWSKI
     UNIVERSITY OF NEW ENGLAND: MARK SPACKMAN
     MIE UNIVERSITY: HIROAKI UMEDA
     NAT. INST. OF ADVANCED INDUSTRIAL SCIENCE AND TECHNOLOGY: KAZUO KITAURA
     MICHIGAN STATE UNIVERSITY:
          KAROL KOWALSKI, MARTA WLOCH, JEFFREY GOUR, JESSE LUTZ,
          WEI LI, JUN SHEN, J. EMILIANO DEUSTUA, PIOTR PIECUCH
     UNIVERSITY OF MINNESOTA:
          YINAN SHU
     UNIVERSITY OF SILESIA: MONIKA MUSIAL, STANISLAW KUCHARSKI
     FACULTES UNIVERSITAIRES NOTRE-DAME DE LA PAIX:
          OLIVIER QUINET, BENOIT CHAMPAGNE
     UNIVERSITY OF CALIFORNIA - SANTA BARBARA: BERNARD KIRTMAN
     INSTITUTE FOR MOLECULAR SCIENCE:
          KAZUYA ISHIMURA, MICHIO KATOUDA, AND SHIGERU NAGASE
     UNIVERSITY OF NOTRE DAME: ANNA POMOGAEVA, DAN CHIPMAN
     KYUSHU UNIVERSITY:
          HARUYUKI NAKANO,
          FENG LONG GU, JACEK KORCHOWIEC, MARCIN MAKOWSKI, AND YURIKO AOKI,
          HIROTOSHI MORI AND EISAKU MIYOSHI
     PENNSYLVANIA STATE UNIVERSITY:
          TZVETELIN IORDANOV, CHET SWALINA, JONATHAN SKONE,
          SHARON HAMMES-SCHIFFER
     WASEDA UNIVERSITY:
          MASATO KOBAYASHI, TOMOKO AKAMA, TSUGUKI TOUMA,
          TAKESHI YOSHIKAWA, YASUHIRO IKABATA, JUNJI SEINO,
          YUYA NAKAJIMA, HIROMI NAKAI
     NANJING UNIVERSITY: SHUHUA LI
     UNIVERSITY OF NEBRASKA:
          PEIFENG SU, DEJUN SI, NANDUN THELLAMUREGE, YALI WANG, HUI LI
     UNIVERSITY OF ZURICH: ROBERTO PEVERATI, KIM BALDRIDGE
     N. COPERNICUS UNIVERSITY AND JACKSON STATE UNIVERSITY:
          MARIA BARYSZ
     UNIVERSITY OF COPENHAGEN: Jimmy Kromann, CASPER STEINMANN
     TOKYO INSTITUTE OF TECHNOLOGY: HIROYA NAKATA
     NAGOYA UNIVERSITY: YOSHIO NISHIMOTO, STEPHAN IRLE
     MOSCOW STATE UNIVERSITY: VLADIMIR MIRONOV


 PARALLEL VERSION RUNNING ON       12 PROCESSORS IN        1 NODES.

 EXECUTION OF GAMESS BEGUN Thu Jun 29 14:48:26 2023

            ECHO OF THE FIRST FEW INPUT CARDS -
 INPUT CARD> $contrl scftyp=rhf runtyp=energy dfttyp=bhhlyp icharg=0                        
 INPUT CARD>         maxit=500 mult=1                                                       
 INPUT CARD> $end                                                                           
 INPUT CARD> $dft sg1=.true. $end                                                           
 INPUT CARD> $scf                                                                           
 INPUT CARD> nconv=6                                                                        
 INPUT CARD> npunch=2                                                                       
 INPUT CARD> $end                                                                           
 INPUT CARD>$reks                                                                           
 INPUT CARD> rexType=2                                                                      
 INPUT CARD> rexTarget=1                                                                    
 INPUT CARD>wpps=0.95                                                                       
 INPUT CARD>rexShift=0.7                                                                    
 INPUT CARD>rexDIIS=no                                                                      
 INPUT CARD>$end                                                                            
 INPUT CARD> $basis gbasis=n31 ngauss=6 ndfunc=1 $end                                       
 INPUT CARD>!!!$guess guess=moread norb=106 $end                                            
 INPUT CARD> $system timlim=999999100 mwords=700 $end                                       
 INPUT CARD> $data                                                                          
 INPUT CARD>TME planar S0 state                                                             
 INPUT CARD> c1                                                                             
 INPUT CARD>Ti 22.0 -1.616636    0.656520    0.857481                                       
 INPUT CARD>Ti 22.0 2.265088   -0.268274    0.514860                                        
 INPUT CARD>O  8.0 0.321234    0.190969    0.660789                                         
 INPUT CARD>O  8.0 -2.266158    1.033202    2.386633                                        
 INPUT CARD>O  8.0 3.258007   -0.282900    1.899051                                         
 INPUT CARD>O  8.0 1.540038   -1.778741   -0.255275                                         
 INPUT CARD>Ti 22.0 0.452557    1.355073   -0.993506                                        
 INPUT CARD>O  8.0 0.016948   -0.129841   -1.920700                                         
 INPUT CARD>Ti 22.0 -0.152286   -1.333916   -0.588040                                       
 INPUT CARD>O  8.0 -1.783296   -0.986980    0.038062                                        
 INPUT CARD>O  8.0 -1.130530    1.915066   -0.399532                                        
 INPUT CARD>O  8.0  2.192804    1.123305   -0.692866                                        
 INPUT CARD> $end                                                                           
  700000000 WORDS OF MEMORY AVAILABLE

 ERROR: MAXIT MUST BE BETWEEN 0 AND 200, NOT     500

     BASIS OPTIONS
     -------------
     GBASIS=N31          IGAUSS=       6      POLAR=POPN31  
     NDFUNC=       1     NFFUNC=       0     DIFFSP=       F
     NPFUNC=       0      DIFFS=       F     BASNAM=        


     RUN TITLE
     ---------
 TME planar S0 state                                                             

 THE POINT GROUP OF THE MOLECULE IS C1      
 THE ORDER OF THE PRINCIPAL AXIS IS     0

 ATOM      ATOMIC                      COORDINATES (BOHR)
           CHARGE         X                   Y                   Z
 TI         22.0    -3.0549990619        1.2406429055        1.6204041297
 TI         22.0     4.2803956581       -0.5069643496        0.9729443220
 O           8.0     0.6070442379        0.3608790821        1.2487101457
 O           8.0    -4.2824176649        1.9524686700        4.5100824033
 O           8.0     6.1567404961       -0.5346034819        3.5886860267
 O           8.0     2.9102498307       -3.3613330931       -0.4823998015
 TI         22.0     0.8552087238        2.5607166634       -1.8774541072
 O           8.0     0.0320270760       -0.2453639120       -3.6295967046
 TI         22.0    -0.2877788118       -2.5207357306       -1.1112344698
 O           8.0    -3.3699407950       -1.8651217554        0.0719267505
 O           8.0    -2.1363919209        3.6189499884       -0.7550060033
 O           8.0     4.1437987048        2.1227386506       -1.3093268862

          INTERNUCLEAR DISTANCES (ANGS.)
          ------------------------------

                1 TI         2 TI         3 O          4 O          5 O     

   1 TI      0.0000000    4.0050486    2.0026896 *  1.7035475 *  5.0724277  
   2 TI      4.0050486    0.0000000    2.0026901 *  5.0724318    1.7035512 *
   3 O       2.0026896 *  2.0026901 *  0.0000000    3.2221873    3.2221856  
   4 O       1.7035475 *  5.0724318    3.2221873    0.0000000    5.6996719  
   5 O       5.0724277    1.7035512 *  3.2221856    5.6996719    0.0000000  
   6 O       4.1392406    1.8439946 *  2.4908661 *  5.4197628    3.1352956  
   7 TI      2.8628114 *  2.8628119 *  2.0270855 *  4.3497531    4.3497576  
   8 O       3.3174162    3.3174161    2.6190828 *  5.0118220    5.0118248  
   9 TI      2.8628111 *  2.8628095 *  2.0270839 *  4.3497565    4.3497534  
  10 O       1.8439944 *  4.1392376    2.4908632 *  3.1352953    5.4197550  
  11 O       1.8439953 *  4.1392400    2.4908653 *  3.1352911    5.4197597  
  12 O       4.1392387    1.8439954 *  2.4908646 *  5.4197578    3.1352996  

                6 O          7 TI         8 O          9 TI        10 O     

   1 TI      4.1392406    2.8628114 *  3.3174162    2.8628111 *  1.8439944 *
   2 TI      1.8439946 *  2.8628119 *  3.3174161    2.8628095 *  4.1392376  
   3 O       2.4908661 *  2.0270855 *  2.6190828 *  2.0270839 *  2.4908632 *
   4 O       5.4197628    4.3497531    5.0118220    4.3497565    3.1352953  
   5 O       3.1352956    4.3497576    5.0118248    4.3497534    5.4197550  
   6 O       0.0000000    3.3982922    2.7950518 *  1.7811688 *  3.4289183  
   7 TI      3.3982922    0.0000000    1.8039993 *  2.7858391 *  3.3982913  
   8 O       2.7950518 *  1.8039993 *  0.0000000    1.8040010 *  2.7950518 *
   9 TI      1.7811688 *  2.7858391 *  1.8040010 *  0.0000000    1.7811687 *
  10 O       3.4289183    3.3982913    2.7950518 *  1.7811687 *  0.0000000  
  11 O       4.5603677    1.7811686 *  2.7950496 *  3.3982908    3.0065700  
  12 O       3.0065695    1.7811683 *  2.7950493 *  3.3982894    4.5603651  

               11 O         12 O     

   1 TI      1.8439953 *  4.1392387  
   2 TI      4.1392400    1.8439954 *
   3 O       2.4908653 *  2.4908646 *
   4 O       3.1352911    5.4197578  
   5 O       5.4197597    3.1352996  
   6 O       4.5603677    3.0065695  
   7 TI      1.7811686 *  1.7811683 *
   8 O       2.7950496 *  2.7950493 *
   9 TI      3.3982908    3.3982894  
  10 O       3.0065700    4.5603651  
  11 O       0.0000000    3.4289181  
  12 O       3.4289181    0.0000000  

  * ... LESS THAN  3.000


     ATOMIC BASIS SET
     ----------------
 THE CONTRACTED PRIMITIVE FUNCTIONS HAVE BEEN UNNORMALIZED
 THE CONTRACTED BASIS FUNCTIONS ARE NOW NORMALIZED TO UNITY

  SHELL TYPE  PRIMITIVE        EXPONENT          CONTRACTION COEFFICIENT(S)

 TI        

      1   S       1         43152.9500000    0.001791871976
      1   S       2          6479.5710000    0.013723919819
      1   S       3          1475.6750000    0.067628299108
      1   S       4           415.6991000    0.233764196917
      1   S       5           133.0006000    0.481069593655
      1   S       6            45.2722200    0.346227995434

      2   L       7           874.6826000    0.002431008053    0.004017679296
      2   L       8           207.9785000    0.032330270707    0.031139662298
      2   L       9            66.8791800    0.124252002716    0.134907709955
      2   L      10            24.8734700   -0.039039050853    0.343167225322
      2   L      11             9.9684410   -0.617178913492    0.462576034134
      2   L      12             4.0638260   -0.447309709779    0.215460315899

      3   L      13            33.6436300   -0.002940357957   -0.006311620001
      3   L      14            10.8756500    0.071631028943   -0.026976380003
      3   L      15             4.6282250    0.252891496268    0.053168470005
      3   L      16             1.9501260   -0.296640095622    0.384554900038
      3   L      17             0.8094520   -0.743221489032    0.512766200050
      3   L      18             0.3204740   -0.185351997265    0.181113500018

      4   L      19             1.2241480    0.063514607166   -0.211207009897
      4   L      20             0.4842630    0.315140187469    0.077719983642
      4   L      21             0.0840960   -1.162594215945    0.989821446382

      5   L      22             0.0320360    1.000000000000    1.000000000000

      6   D      23            13.6908500    0.085894178803
      6   D      24             3.5131540    0.378467094726
      6   D      25             1.0404340    0.716123890021

      7   D      26             0.2869620    1.000000000000

      8   F      27             0.8000000    1.000000000000

 TI        

      9   S      28         43152.9500000    0.001791871976
      9   S      29          6479.5710000    0.013723919819
      9   S      30          1475.6750000    0.067628299108
      9   S      31           415.6991000    0.233764196917
      9   S      32           133.0006000    0.481069593655
      9   S      33            45.2722200    0.346227995434

     10   L      34           874.6826000    0.002431008053    0.004017679296
     10   L      35           207.9785000    0.032330270707    0.031139662298
     10   L      36            66.8791800    0.124252002716    0.134907709955
     10   L      37            24.8734700   -0.039039050853    0.343167225322
     10   L      38             9.9684410   -0.617178913492    0.462576034134
     10   L      39             4.0638260   -0.447309709779    0.215460315899

     11   L      40            33.6436300   -0.002940357957   -0.006311620001
     11   L      41            10.8756500    0.071631028943   -0.026976380003
     11   L      42             4.6282250    0.252891496268    0.053168470005
     11   L      43             1.9501260   -0.296640095622    0.384554900038
     11   L      44             0.8094520   -0.743221489032    0.512766200050
     11   L      45             0.3204740   -0.185351997265    0.181113500018

     12   L      46             1.2241480    0.063514607166   -0.211207009897
     12   L      47             0.4842630    0.315140187469    0.077719983642
     12   L      48             0.0840960   -1.162594215945    0.989821446382

     13   L      49             0.0320360    1.000000000000    1.000000000000

     14   D      50            13.6908500    0.085894178803
     14   D      51             3.5131540    0.378467094726
     14   D      52             1.0404340    0.716123890021

     15   D      53             0.2869620    1.000000000000

     16   F      54             0.8000000    1.000000000000

 O         

     17   S      55          5484.6716600    0.001831074430
     17   S      56           825.2349460    0.013950172200
     17   S      57           188.0469580    0.068445078098
     17   S      58            52.9645000    0.232714335992
     17   S      59            16.8975704    0.470192897984
     17   S      60             5.7996353    0.358520852987

     18   L      61            15.5396162   -0.110777549525    0.070874268231
     18   L      62             3.5999336   -0.148026262701    0.339752839147
     18   L      63             1.0137618    1.130767015354    0.727158577316

     19   L      64             0.2700058    1.000000000000    1.000000000000

     20   D      65             0.8000000    1.000000000000

 O         

     21   S      66          5484.6716600    0.001831074430
     21   S      67           825.2349460    0.013950172200
     21   S      68           188.0469580    0.068445078098
     21   S      69            52.9645000    0.232714335992
     21   S      70            16.8975704    0.470192897984
     21   S      71             5.7996353    0.358520852987

     22   L      72            15.5396162   -0.110777549525    0.070874268231
     22   L      73             3.5999336   -0.148026262701    0.339752839147
     22   L      74             1.0137618    1.130767015354    0.727158577316

     23   L      75             0.2700058    1.000000000000    1.000000000000

     24   D      76             0.8000000    1.000000000000

 O         

     25   S      77          5484.6716600    0.001831074430
     25   S      78           825.2349460    0.013950172200
     25   S      79           188.0469580    0.068445078098
     25   S      80            52.9645000    0.232714335992
     25   S      81            16.8975704    0.470192897984
     25   S      82             5.7996353    0.358520852987

     26   L      83            15.5396162   -0.110777549525    0.070874268231
     26   L      84             3.5999336   -0.148026262701    0.339752839147
     26   L      85             1.0137618    1.130767015354    0.727158577316

     27   L      86             0.2700058    1.000000000000    1.000000000000

     28   D      87             0.8000000    1.000000000000

 O         

     29   S      88          5484.6716600    0.001831074430
     29   S      89           825.2349460    0.013950172200
     29   S      90           188.0469580    0.068445078098
     29   S      91            52.9645000    0.232714335992
     29   S      92            16.8975704    0.470192897984
     29   S      93             5.7996353    0.358520852987

     30   L      94            15.5396162   -0.110777549525    0.070874268231
     30   L      95             3.5999336   -0.148026262701    0.339752839147
     30   L      96             1.0137618    1.130767015354    0.727158577316

     31   L      97             0.2700058    1.000000000000    1.000000000000

     32   D      98             0.8000000    1.000000000000

 TI        

     33   S      99         43152.9500000    0.001791871976
     33   S     100          6479.5710000    0.013723919819
     33   S     101          1475.6750000    0.067628299108
     33   S     102           415.6991000    0.233764196917
     33   S     103           133.0006000    0.481069593655
     33   S     104            45.2722200    0.346227995434

     34   L     105           874.6826000    0.002431008053    0.004017679296
     34   L     106           207.9785000    0.032330270707    0.031139662298
     34   L     107            66.8791800    0.124252002716    0.134907709955
     34   L     108            24.8734700   -0.039039050853    0.343167225322
     34   L     109             9.9684410   -0.617178913492    0.462576034134
     34   L     110             4.0638260   -0.447309709779    0.215460315899

     35   L     111            33.6436300   -0.002940357957   -0.006311620001
     35   L     112            10.8756500    0.071631028943   -0.026976380003
     35   L     113             4.6282250    0.252891496268    0.053168470005
     35   L     114             1.9501260   -0.296640095622    0.384554900038
     35   L     115             0.8094520   -0.743221489032    0.512766200050
     35   L     116             0.3204740   -0.185351997265    0.181113500018

     36   L     117             1.2241480    0.063514607166   -0.211207009897
     36   L     118             0.4842630    0.315140187469    0.077719983642
     36   L     119             0.0840960   -1.162594215945    0.989821446382

     37   L     120             0.0320360    1.000000000000    1.000000000000

     38   D     121            13.6908500    0.085894178803
     38   D     122             3.5131540    0.378467094726
     38   D     123             1.0404340    0.716123890021

     39   D     124             0.2869620    1.000000000000

     40   F     125             0.8000000    1.000000000000

 O         

     41   S     126          5484.6716600    0.001831074430
     41   S     127           825.2349460    0.013950172200
     41   S     128           188.0469580    0.068445078098
     41   S     129            52.9645000    0.232714335992
     41   S     130            16.8975704    0.470192897984
     41   S     131             5.7996353    0.358520852987

     42   L     132            15.5396162   -0.110777549525    0.070874268231
     42   L     133             3.5999336   -0.148026262701    0.339752839147
     42   L     134             1.0137618    1.130767015354    0.727158577316

     43   L     135             0.2700058    1.000000000000    1.000000000000

     44   D     136             0.8000000    1.000000000000

 TI        

     45   S     137         43152.9500000    0.001791871976
     45   S     138          6479.5710000    0.013723919819
     45   S     139          1475.6750000    0.067628299108
     45   S     140           415.6991000    0.233764196917
     45   S     141           133.0006000    0.481069593655
     45   S     142            45.2722200    0.346227995434

     46   L     143           874.6826000    0.002431008053    0.004017679296
     46   L     144           207.9785000    0.032330270707    0.031139662298
     46   L     145            66.8791800    0.124252002716    0.134907709955
     46   L     146            24.8734700   -0.039039050853    0.343167225322
     46   L     147             9.9684410   -0.617178913492    0.462576034134
     46   L     148             4.0638260   -0.447309709779    0.215460315899

     47   L     149            33.6436300   -0.002940357957   -0.006311620001
     47   L     150            10.8756500    0.071631028943   -0.026976380003
     47   L     151             4.6282250    0.252891496268    0.053168470005
     47   L     152             1.9501260   -0.296640095622    0.384554900038
     47   L     153             0.8094520   -0.743221489032    0.512766200050
     47   L     154             0.3204740   -0.185351997265    0.181113500018

     48   L     155             1.2241480    0.063514607166   -0.211207009897
     48   L     156             0.4842630    0.315140187469    0.077719983642
     48   L     157             0.0840960   -1.162594215945    0.989821446382

     49   L     158             0.0320360    1.000000000000    1.000000000000

     50   D     159            13.6908500    0.085894178803
     50   D     160             3.5131540    0.378467094726
     50   D     161             1.0404340    0.716123890021

     51   D     162             0.2869620    1.000000000000

     52   F     163             0.8000000    1.000000000000

 O         

     53   S     164          5484.6716600    0.001831074430
     53   S     165           825.2349460    0.013950172200
     53   S     166           188.0469580    0.068445078098
     53   S     167            52.9645000    0.232714335992
     53   S     168            16.8975704    0.470192897984
     53   S     169             5.7996353    0.358520852987

     54   L     170            15.5396162   -0.110777549525    0.070874268231
     54   L     171             3.5999336   -0.148026262701    0.339752839147
     54   L     172             1.0137618    1.130767015354    0.727158577316

     55   L     173             0.2700058    1.000000000000    1.000000000000

     56   D     174             0.8000000    1.000000000000

 O         

     57   S     175          5484.6716600    0.001831074430
     57   S     176           825.2349460    0.013950172200
     57   S     177           188.0469580    0.068445078098
     57   S     178            52.9645000    0.232714335992
     57   S     179            16.8975704    0.470192897984
     57   S     180             5.7996353    0.358520852987

     58   L     181            15.5396162   -0.110777549525    0.070874268231
     58   L     182             3.5999336   -0.148026262701    0.339752839147
     58   L     183             1.0137618    1.130767015354    0.727158577316

     59   L     184             0.2700058    1.000000000000    1.000000000000

     60   D     185             0.8000000    1.000000000000

 O         

     61   S     186          5484.6716600    0.001831074430
     61   S     187           825.2349460    0.013950172200
     61   S     188           188.0469580    0.068445078098
     61   S     189            52.9645000    0.232714335992
     61   S     190            16.8975704    0.470192897984
     61   S     191             5.7996353    0.358520852987

     62   L     192            15.5396162   -0.110777549525    0.070874268231
     62   L     193             3.5999336   -0.148026262701    0.339752839147
     62   L     194             1.0137618    1.130767015354    0.727158577316

     63   L     195             0.2700058    1.000000000000    1.000000000000

     64   D     196             0.8000000    1.000000000000

 TOTAL NUMBER OF BASIS SET SHELLS             =   64
 NUMBER OF CARTESIAN GAUSSIAN BASIS FUNCTIONS =  276
 NUMBER OF ELECTRONS                          =  152
 CHARGE OF MOLECULE                           =    0
 SPIN MULTIPLICITY                            =    1
 NUMBER OF OCCUPIED ORBITALS (ALPHA)          =   76
 NUMBER OF OCCUPIED ORBITALS (BETA )          =   76
 TOTAL NUMBER OF ATOMS                        =   12
 THE NUCLEAR REPULSION ENERGY IS     1982.1776109960
 THE NUCLEAR REPULSION ENERGY IS     1982.1776109960

     STANDARD GRID ONE (SG-1) PRUNED GRID OPTIONS
     -------------------------------------------
     DFTTYP=BHHLYP  
     GRID HAS 50 RADIAL POINTS AND AT MOST
      194 ANGULAR POINTS, BEFORE PRUNING
     SWOFF =    5.00E-03 (PURE SCF -> DFT)
     COARSE GRID SWITCHING IS NOT AVAILABLE
     THRESH=    0.00E+00 GTHRE=    1.00E+00

 GRIMME'S EMPIRICAL DISPERSION CORRECTION= F

     $CONTRL OPTIONS
     ---------------
 SCFTYP=RHF          RUNTYP=ENERGY       EXETYP=RUN     
 MPLEVL=       0     CITYP =NONE         CCTYP =NONE         VBTYP =NONE    
 DFTTYP=BHHLYP       TDDFT =NONE    
 MULT  =       1     ICHARG=       0     NZVAR =       0     COORD =UNIQUE  
 PP    =NONE         RELWFN=NONE         LOCAL =NONE         NUMGRD=       F
 ISPHER=      -1     NOSYM =       0     MAXIT =     500     UNITS =ANGS    
 PLTORB=       F     MOLPLT=       F     AIMPAC=       F     FRIEND=        
 NPRINT=       7     IREST =       0     GEOM  =INPUT   
 NORMF =       0     NORMP =       0     ITOL  =      20     ICUT  =       9
 INTTYP=BEST         GRDTYP=BEST         QMTTOL= 1.0E-06

     $SYSTEM OPTIONS
     ---------------
  REPLICATED MEMORY=   700000000 WORDS (ON EVERY NODE).
 DISTRIBUTED MEMDDI=           0 MILLION WORDS IN AGGREGATE,
 MEMDDI DISTRIBUTED OVER  12 PROCESSORS IS           0 WORDS/PROCESSOR.
 TOTAL MEMORY REQUESTED ON EACH PROCESSOR=   700000000 WORDS.
 TIMLIM=   999999100.00 MINUTES, OR  694443.8 DAYS.
 PARALL= T  BALTYP=  DLB     KDIAG=    0  COREFL= F
 MXSEQ2=     300 MXSEQ3=     150  mem10=         0

          ----------------
          PROPERTIES INPUT
          ----------------

     MOMENTS            FIELD           POTENTIAL          DENSITY
 IEMOM =       1   IEFLD =       0   IEPOT =       0   IEDEN =       0
 WHERE =COMASS     WHERE =NUCLEI     WHERE =NUCLEI     WHERE =NUCLEI  
 OUTPUT=BOTH       OUTPUT=BOTH       OUTPUT=BOTH       OUTPUT=BOTH    
 IEMINT=       0   IEFINT=       0                     IEDINT=       0
                                                       MORB  =       0
          EXTRAPOLATION IN EFFECT
          DIIS IN EFFECT
 ORBITAL PRINTING OPTION: NPREO=     1   276     2     1

     -------------------------------
     INTEGRAL TRANSFORMATION OPTIONS
     -------------------------------
     NWORD  =            0
     CUTOFF = 1.0E-09     MPTRAN =       0
     DIRTRF =       F     AOINTS =DUP     

          ----------------------
          INTEGRAL INPUT OPTIONS
          ----------------------
 NOPK  =       1 NORDER=       0 SCHWRZ=       T

     ------------------------------------------
     THE POINT GROUP IS C1 , NAXIS= 0, ORDER= 1
     ------------------------------------------

     DIMENSIONS OF THE SYMMETRY SUBSPACES ARE
 A   =  276

 ..... DONE SETTING UP THE RUN .....
 CPU     0: STEP CPU TIME=     0.03 TOTAL CPU TIME=          0.0 (      0.0 MIN)
 TOTAL WALL CLOCK TIME=          0.1 SECONDS, CPU UTILIZATION IS    30.77%

          ********************
          1 ELECTRON INTEGRALS
          ********************
 ...... END OF ONE-ELECTRON INTEGRALS ......
 CPU     0: STEP CPU TIME=     0.02 TOTAL CPU TIME=          0.1 (      0.0 MIN)
 TOTAL WALL CLOCK TIME=          0.2 SECONDS, CPU UTILIZATION IS    37.50%

          -------------
          GUESS OPTIONS
          -------------
          GUESS =HUCKEL            NORB  =       0          NORDER=       0
          MIX   =       F          PRTMO =       F          PUNMO =       F
          TOLZ  = 1.0E-08          TOLE  = 1.0E-05
          SYMDEN=       F          PURIFY=       F

 INITIAL GUESS ORBITALS GENERATED BY HUCKEL   ROUTINE.
 HUCKEL GUESS REQUIRES    607092 WORDS.

 SYMMETRIES FOR INITIAL GUESS ORBITALS FOLLOW.   BOTH SET(S).
    76 ORBITALS ARE OCCUPIED (   44 CORE ORBITALS).
    45=A       46=A       47=A       48=A       49=A       50=A       51=A   
    52=A       53=A       54=A       55=A       56=A       57=A       58=A   
    59=A       60=A       61=A       62=A       63=A       64=A       65=A   
    66=A       67=A       68=A       69=A       70=A       71=A       72=A   
    73=A       74=A       75=A       76=A       77=A       78=A       79=A   
    80=A       81=A       82=A       83=A       84=A       85=A       86=A   
 ...... END OF INITIAL ORBITAL SELECTION ......
 CPU     0: STEP CPU TIME=     0.11 TOTAL CPU TIME=          0.2 (      0.0 MIN)
 TOTAL WALL CLOCK TIME=          0.3 SECONDS, CPU UTILIZATION IS    56.67%

                    ----------------------
                    AO INTEGRAL TECHNOLOGY
                    ----------------------
     S,P,L SHELL ROTATED AXIS INTEGRALS, REPROGRAMMED BY
        KAZUYA ISHIMURA (IMS) AND JOSE SIERRA (SYNSTAR).
     S,P,D,L SHELL ROTATED AXIS INTEGRALS PROGRAMMED BY
        KAZUYA ISHIMURA (INSTITUTE FOR MOLECULAR SCIENCE).
     S,P,D,F,G SHELL TO TOTAL QUARTET ANGULAR MOMENTUM SUM 5,
        ERIC PROGRAM BY GRAHAM FLETCHER (ELORET AND NASA ADVANCED
        SUPERCOMPUTING DIVISION, AMES RESEARCH CENTER).
     S,P,D,F,G,L SHELL GENERAL RYS QUADRATURE PROGRAMMED BY
        MICHEL DUPUIS (PACIFIC NORTHWEST NATIONAL LABORATORY).

          --------------------
          2 ELECTRON INTEGRALS
          --------------------

 THE -PK- OPTION IS OFF, THE INTEGRALS ARE NOT IN SUPERMATRIX FORM.
 STORING   15000 INTEGRALS/RECORD ON DISK, USING 16 BYTES/INTEGRAL.
 TWO ELECTRON INTEGRAL EVALUATION REQUIRES  101180 WORDS OF MEMORY.
 SCHWARZ INEQUALITY OVERHEAD:     36100 INTEGRALS, T=        0.00
 II,JST,KST,LST =  1  1  1  1 NREC =         1 INTLOC =    1
 II,JST,KST,LST =  2  1  1  1 NREC =         1 INTLOC =    1
 II,JST,KST,LST =  3  1  1  1 NREC =         1 INTLOC =    1
 II,JST,KST,LST =  4  1  1  1 NREC =         1 INTLOC =    1
 II,JST,KST,LST =  5  1  1  1 NREC =         1 INTLOC =    1
 II,JST,KST,LST =  6  1  1  1 NREC =         1 INTLOC =    1
 II,JST,KST,LST =  7  1  1  1 NREC =         1 INTLOC =    1
 II,JST,KST,LST =  8  1  1  1 NREC =         1 INTLOC = 2755
 II,JST,KST,LST =  9  1  1  1 NREC =         1 INTLOC = 2755
 II,JST,KST,LST = 10  1  1  1 NREC =         1 INTLOC = 2755
 II,JST,KST,LST = 11  1  1  1 NREC =         1 INTLOC = 9954
 II,JST,KST,LST = 12  1  1  1 NREC =         2 INTLOC =12911
 II,JST,KST,LST = 13  1  1  1 NREC =         2 INTLOC =12911
 II,JST,KST,LST = 14  1  1  1 NREC =         2 INTLOC =12911
 II,JST,KST,LST = 15  1  1  1 NREC =         4 INTLOC = 6707
 II,JST,KST,LST = 16  1  1  1 NREC =         9 INTLOC = 4847
 II,JST,KST,LST = 17  1  1  1 NREC =        22 INTLOC =  675
 II,JST,KST,LST = 18  1  1  1 NREC =        22 INTLOC =  675
 II,JST,KST,LST = 19  1  1  1 NREC =        22 INTLOC =  675
 II,JST,KST,LST = 20  1  1  1 NREC =        31 INTLOC = 4580
 II,JST,KST,LST = 21  1  1  1 NREC =        54 INTLOC = 5344
 II,JST,KST,LST = 22  1  1  1 NREC =        54 INTLOC = 5344
 II,JST,KST,LST = 23  1  1  1 NREC =        54 INTLOC = 5344
 II,JST,KST,LST = 24  1  1  1 NREC =        54 INTLOC = 5344
 II,JST,KST,LST = 25  1  1  1 NREC =        65 INTLOC = 6257
 II,JST,KST,LST = 26  1  1  1 NREC =        67 INTLOC =10242
 II,JST,KST,LST = 27  1  1  1 NREC =        74 INTLOC =11170
 II,JST,KST,LST = 28  1  1  1 NREC =        84 INTLOC =  246
 II,JST,KST,LST = 29  1  1  1 NREC =       104 INTLOC =12986
 II,JST,KST,LST = 30  1  1  1 NREC =       104 INTLOC =12986
 II,JST,KST,LST = 31  1  1  1 NREC =       110 INTLOC = 4035
 II,JST,KST,LST = 32  1  1  1 NREC =       126 INTLOC =13995
 II,JST,KST,LST = 33  1  1  1 NREC =       140 INTLOC =  870
 II,JST,KST,LST = 34  1  1  1 NREC =       141 INTLOC =14029
 II,JST,KST,LST = 35  1  1  1 NREC =       148 INTLOC =11527
 II,JST,KST,LST = 36  1  1  1 NREC =       176 INTLOC = 1691
 II,JST,KST,LST = 37  1  1  1 NREC =       176 INTLOC = 1691
 II,JST,KST,LST = 38  1  1  1 NREC =       223 INTLOC = 1477
 II,JST,KST,LST = 39  1  1  1 NREC =       242 INTLOC =  572
 II,JST,KST,LST = 40  1  1  1 NREC =       285 INTLOC =14499
 II,JST,KST,LST = 41  1  1  1 NREC =       344 INTLOC = 1768
 II,JST,KST,LST = 42  1  1  1 NREC =       345 INTLOC = 2723
 II,JST,KST,LST = 43  1  1  1 NREC =       388 INTLOC = 1165
 II,JST,KST,LST = 44  1  1  1 NREC =       445 INTLOC =12038
 II,JST,KST,LST = 45  1  1  1 NREC =       511 INTLOC = 3604
 II,JST,KST,LST = 46  1  1  1 NREC =       521 INTLOC =  386
 II,JST,KST,LST = 47  1  1  1 NREC =       540 INTLOC =13502
 II,JST,KST,LST = 48  1  1  1 NREC =       607 INTLOC = 5169
 II,JST,KST,LST = 49  1  1  1 NREC =       654 INTLOC = 6599
 II,JST,KST,LST = 50  1  1  1 NREC =       734 INTLOC = 3163
 II,JST,KST,LST = 51  1  1  1 NREC =       857 INTLOC = 4611
 II,JST,KST,LST = 52  1  1  1 NREC =       907 INTLOC =10780
 II,JST,KST,LST = 53  1  1  1 NREC =      1090 INTLOC = 2977
 II,JST,KST,LST = 54  1  1  1 NREC =      1090 INTLOC = 2977
 II,JST,KST,LST = 55  1  1  1 NREC =      1090 INTLOC = 2977
 II,JST,KST,LST = 56  1  1  1 NREC =      1220 INTLOC =11333
 II,JST,KST,LST = 57  1  1  1 NREC =      1339 INTLOC = 1861
 II,JST,KST,LST = 58  1  1  1 NREC =      1359 INTLOC = 7597
 II,JST,KST,LST = 59  1  1  1 NREC =      1404 INTLOC = 4687
 II,JST,KST,LST = 60  1  1  1 NREC =      1509 INTLOC = 3846
 II,JST,KST,LST = 61  1  1  1 NREC =      1765 INTLOC =13024
 II,JST,KST,LST = 62  1  1  1 NREC =      1765 INTLOC =13024
 II,JST,KST,LST = 63  1  1  1 NREC =      1854 INTLOC = 4749
 II,JST,KST,LST = 64  1  1  1 NREC =      2078 INTLOC =10864
 SCHWARZ INEQUALITY TEST SKIPPED      948815 INTEGRAL BLOCKS.
 TOTAL NUMBER OF NONZERO TWO-ELECTRON INTEGRALS =           419955975
      28004 INTEGRAL RECORDS WERE STORED ON DISK FILE  8.
  ...... END OF TWO-ELECTRON INTEGRALS .....
 CPU     0: STEP CPU TIME=     3.06 TOTAL CPU TIME=          3.2 (      0.1 MIN)
 TOTAL WALL CLOCK TIME=          3.5 SECONDS, CPU UTILIZATION IS    91.50%

          --------------------------
            R-BHHLYP SCF CALCULATION
          --------------------------

     NUCLEAR ENERGY =      1982.1776109960
     MAXIT =  500     NPUNCH=    2
     EXTRAP=T  DAMP=F  SHIFT=F  RSTRCT=F  DIIS=T  DEM=F  SOSCF=F
         DENSITY MATRIX CONVERGENCE THRESHOLD=  1.00E-06
     COARSE -> FINE DFT GRID SWITCH THRESHOLD=  3.00E-04 (SWITCH IN $DFT)
                   HF -> DFT SWITCH THRESHOLD=  5.00E-03 (SWOFF IN $DFT)
     MEMORY REQUIRED FOR RHF ITERS=    941497 WORDS.

     EXCHANGE FUNCTIONAL   =B88&HFX   
     CORRELATION FUNCTIONAL=LYP88     
     DFT THRESHOLD         =.859E-08
 FOR AN EULER-MACLAURIN QUADRATURE USING  50 RADIAL POINTS:
 SMALLEST GAUSSIAN PRIMITIVE EXPONENT=        0.0320360000 OF TYPE -P-
 ON ATOM NUMBER   1 HAS RADIAL NORMALIZATION=  1.000000
  LARGEST GAUSSIAN PRIMITIVE EXPONENT=    43152.9500000000 OF TYPE -S-
 ON ATOM NUMBER   1 HAS RADIAL NORMALIZATION=  0.998705

          **************************************************
          *                                                *
          * WARNING: QUESTIONABLE SELECTION OF RADIAL GRID *
          *                                                *
          **************************************************

 THIS RUN HAS REQUESTED NRAD=  50 IN $DFT OR $TDDFT
 ATOM=    1 HAS LARGE EXPONENT=         43152.949999999997090
 RECOMMEND NRAD ABOVE  50 FOR ZETA'S ABOVE 1E+4
 RECOMMEND NRAD ABOVE  75 FOR ZETA'S ABOVE 1E+5
 RECOMMEND NRAD ABOVE 125 FOR ZETA'S ABOVE 1E+6
 DFT IS SWITCHED OFF, PERFORMING PURE SCF UNTIL SWOFF THRESHOLD IS REACHED.

 ITER EX DEM     TOTAL ENERGY        E CHANGE  DENSITY CHANGE    DIIS ERROR
   1  0  0    -3988.8809283705 -3988.8809283705   0.443350472   1.933468252
          * * *   INITIATING DIIS PROCEDURE   * * *
   2  1  0    -3992.0169342358    -3.1360058654   0.530473615   0.164417177
   3  2  0    -3991.9312483829     0.0856858529   0.257580357   0.159238098
   4  3  0    -3992.8269921839    -0.8957438010   0.089121878   0.029518882
   5  4  0    -3992.8425069764    -0.0155147925   0.041996825   0.013684088
   6  5  0    -3992.8457442587    -0.0032372823   0.005673495   0.002470266
   7  6  0    -3992.8460260250    -0.0002817662   0.004090813   0.001745892
 CONVERGED TO SWOFF, SO DFT CALCULATION IS NOW SWITCHED ON.
          * * *   INITIATING DIIS PROCEDURE   * * *
   8  7  0    -3999.5627442583    -6.7167182333   0.085260313   0.039764330
   9  8  0    -3999.5463475515     0.0163967068   0.140104387   0.054400226
  10  9  0    -3999.6388467125    -0.0924991611   0.067987085   0.036036466
  11 10  0    -3999.6620617012    -0.0232149887   0.027610848   0.025380266
  12 11  0    -3999.6694344348    -0.0073727336   0.007944724   0.008367481
  13 12  0    -3999.6706921965    -0.0012577617   0.002849837   0.000923301
  14 13  0    -3999.6707174510    -0.0000252544   0.001223581   0.000448501
  15 14  0    -3999.6707287788    -0.0000113278   0.000552356   0.000119747
  16 15  0    -3999.6707305465    -0.0000017678   0.000411859   0.000085152
  17 16  0    -3999.6707311220    -0.0000005755   0.000177544   0.000044523
  18 17  0    -3999.6707312313    -0.0000001093   0.000089792   0.000037303
  19 18  0    -3999.6707312637    -0.0000000324   0.000069649   0.000019352
  20 19  0    -3999.6707312815    -0.0000000178   0.000015138   0.000003927
  21 20  0    -3999.6707312832    -0.0000000018   0.000016055   0.000002763
  22 21  0    -3999.6707312840    -0.0000000008   0.000005504   0.000002478
  23 22  0    -3999.6707312841    -0.0000000001   0.000002511   0.000001151
  24 23  0    -3999.6707312841    -0.0000000000   0.000001487   0.000000828
  25 24  0    -3999.6707312841    -0.0000000000   0.000000645   0.000000173

          -----------------
          DENSITY CONVERGED
          -----------------
     TIME TO FORM FOCK OPERATORS=      13.2 SECONDS (       0.5 SEC/ITER)
     TIME TO SOLVE SCF EQUATIONS=       0.9 SECONDS (       0.0 SEC/ITER)

 FINAL R-BHHLYP ENERGY IS    -3999.6707312841 AFTER  25 ITERATIONS
 DFT EXCHANGE + CORRELATION ENERGY =      -121.8569505693
 TOTAL ELECTRON NUMBER             =       152.1974203836

          ------------
          EIGENVECTORS
          ------------

                      1          2          3          4          5
                 -180.7157  -180.7133  -180.6444  -180.6422   -20.6748
                     A          A          A          A          A   
    1  TI 1  S   -0.000007  -0.000007  -0.000001   0.996407   0.000001
    2  TI 1  S   -0.000000  -0.000000   0.000001  -0.012484   0.000004
    3  TI 1  X   -0.000001  -0.000000  -0.000000  -0.000007   0.000000
    4  TI 1  Y   -0.000001   0.000001   0.000000   0.000003   0.000000
    5  TI 1  Z    0.000001   0.000001   0.000000   0.000009  -0.000001
    6  TI 1  S   -0.000032  -0.000032  -0.000002   0.020743   0.000122
    7  TI 1  X   -0.000005  -0.000006   0.000007   0.000022   0.000003
    8  TI 1  Y    0.000004   0.000001  -0.000002  -0.000009  -0.000001
    9  TI 1  Z    0.000007   0.000007  -0.000001  -0.000027  -0.000006
   10  TI 1  S    0.000075   0.000075   0.000040  -0.000517  -0.000046
   11  TI 1  X   -0.000034  -0.000032   0.000033   0.000060  -0.000003
   12  TI 1  Y    0.000008   0.000021  -0.000008  -0.000028  -0.000004
   13  TI 1  Z    0.000048   0.000046  -0.000001  -0.000095  -0.000025
   14  TI 1  S    0.000247   0.000247   0.000240  -0.000574  -0.000598
   15  TI 1  X    0.000077   0.000048   0.000058  -0.000142  -0.000172
   16  TI 1  Y    0.000042  -0.000087  -0.000021   0.000054  -0.000145
   17  TI 1  Z   -0.000068  -0.000048  -0.000051   0.000145   0.000142
   18  TI 1 XX   -0.000025  -0.000025  -0.000005   0.008206   0.000078
   19  TI 1 YY   -0.000020  -0.000023  -0.000004   0.008205   0.000062
   20  TI 1 ZZ   -0.000022  -0.000020  -0.000004   0.008213   0.000075
   21  TI 1 XY    0.000001   0.000002  -0.000000  -0.000002  -0.000002
   22  TI 1 XZ    0.000003   0.000001  -0.000001  -0.000007  -0.000019
   23  TI 1 YZ    0.000003  -0.000004   0.000000   0.000003  -0.000003
   24  TI 1 XX    0.000013   0.000020   0.000019   0.000239  -0.000042
   25  TI 1 YY    0.000008   0.000000   0.000004   0.000241   0.000009
   26  TI 1 ZZ    0.000004   0.000004   0.000003   0.000203  -0.000053
   27  TI 1 XY   -0.000012   0.000006  -0.000003   0.000007   0.000016
   28  TI 1 XZ    0.000005   0.000002   0.000005   0.000040   0.000075
   29  TI 1 YZ   -0.000001  -0.000000  -0.000001  -0.000016  -0.000009
   30  TI 1 XXX  -0.000003   0.000001   0.000002  -0.000026   0.000013
   31  TI 1 YYY  -0.000005   0.000010  -0.000000   0.000012   0.000014
   32  TI 1 ZZZ   0.000008   0.000005  -0.000000   0.000003  -0.000031
   33  TI 1 XXY  -0.000005   0.000003  -0.000000   0.000005  -0.000002
   34  TI 1 XXZ   0.000003   0.000001   0.000001   0.000005   0.000010
   35  TI 1 YYX  -0.000003  -0.000004   0.000001  -0.000008   0.000017
   36  TI 1 YYZ   0.000002   0.000003   0.000000   0.000020  -0.000011
   37  TI 1 ZZX  -0.000006  -0.000004   0.000001   0.000002   0.000003
   38  TI 1 ZZY  -0.000002   0.000006  -0.000000  -0.000007   0.000001
   39  TI 1 XYZ   0.000001  -0.000001  -0.000000   0.000007   0.000009
   40  TI 2  S   -0.000007  -0.000007   0.996407   0.000000   0.000001
   41  TI 2  S   -0.000000  -0.000000  -0.012485   0.000001   0.000004
   42  TI 2  X    0.000000   0.000001   0.000009   0.000000  -0.000000
   43  TI 2  Y   -0.000001   0.000001  -0.000001  -0.000000   0.000001
   44  TI 2  Z    0.000001   0.000000   0.000007   0.000000  -0.000001
   45  TI 2  S   -0.000032  -0.000032   0.020743  -0.000002   0.000122
   46  TI 2  X    0.000007   0.000006  -0.000028  -0.000007  -0.000004
   47  TI 2  Y    0.000001  -0.000002   0.000003   0.000002   0.000001
   48  TI 2  Z    0.000006   0.000006  -0.000023   0.000001  -0.000005
   49  TI 2  S    0.000075   0.000075  -0.000517   0.000040  -0.000048
   50  TI 2  X    0.000042   0.000045  -0.000081  -0.000032  -0.000004
   51  TI 2  Y   -0.000010   0.000002   0.000006   0.000008  -0.000003
   52  TI 2  Z    0.000041   0.000039  -0.000082   0.000004  -0.000026
   53  TI 2  S    0.000247   0.000248  -0.000574   0.000240  -0.000600
   54  TI 2  X   -0.000060  -0.000089   0.000172  -0.000069   0.000110
   55  TI 2  Y    0.000074  -0.000054  -0.000021   0.000009  -0.000212
   56  TI 2  Z   -0.000055  -0.000036   0.000117  -0.000040   0.000118
   57  TI 2 XX   -0.000025  -0.000026   0.008209  -0.000004   0.000081
   58  TI 2 YY   -0.000021  -0.000022   0.008204  -0.000004   0.000064
   59  TI 2 ZZ   -0.000022  -0.000020   0.008211  -0.000005   0.000070
   60  TI 2 XY    0.000002  -0.000000   0.000000   0.000000  -0.000009
   61  TI 2 XZ   -0.000001  -0.000002   0.000009   0.000001   0.000014
   62  TI 2 YZ    0.000003  -0.000003  -0.000001  -0.000000  -0.000011
   63  TI 2 XX    0.000019   0.000011   0.000221   0.000016  -0.000063
   64  TI 2 YY    0.000000   0.000009   0.000245   0.000004   0.000008
   65  TI 2 ZZ    0.000006   0.000005   0.000216   0.000005  -0.000031
   66  TI 2 XY    0.000005  -0.000013  -0.000001  -0.000004   0.000021
   67  TI 2 XZ   -0.000007  -0.000003  -0.000046  -0.000007  -0.000068
   68  TI 2 YZ    0.000000   0.000003   0.000006   0.000002   0.000025
   69  TI 2 XXX   0.000000   0.000005   0.000026  -0.000001  -0.000016
   70  TI 2 YYY  -0.000009   0.000006  -0.000000   0.000000   0.000023
   71  TI 2 ZZZ   0.000005   0.000003   0.000004   0.000001  -0.000029
   72  TI 2 XXY  -0.000003   0.000007  -0.000002   0.000000  -0.000006
   73  TI 2 XXZ   0.000004   0.000003  -0.000004   0.000001   0.000000
   74  TI 2 YYX   0.000004   0.000004   0.000015  -0.000001  -0.000000
   75  TI 2 YYZ   0.000002   0.000001   0.000020   0.000001   0.000001
   76  TI 2 ZZX   0.000005   0.000006  -0.000004  -0.000002  -0.000010
   77  TI 2 ZZY  -0.000005   0.000003  -0.000005   0.000000   0.000008
   78  TI 2 XYZ  -0.000001   0.000001   0.000004  -0.000000  -0.000013
   79  O  3  S    0.000003   0.000003   0.000004   0.000004  -0.000002
   80  O  3  S   -0.000002  -0.000002  -0.000001  -0.000001  -0.000005
   81  O  3  X    0.000001  -0.000002   0.000006  -0.000005  -0.000002
   82  O  3  Y    0.000007  -0.000008  -0.000001   0.000002  -0.000017
   83  O  3  Z   -0.000007  -0.000005   0.000005   0.000006   0.000027
   84  O  3  S   -0.000077  -0.000077  -0.000084  -0.000084  -0.000024
   85  O  3  X    0.000002  -0.000003   0.000047  -0.000050  -0.000019
   86  O  3  Y    0.000012  -0.000012  -0.000013   0.000010  -0.000113
   87  O  3  Z   -0.000005  -0.000002  -0.000018  -0.000009   0.000087
   88  O  3 XX    0.000001   0.000004   0.000059   0.000060   0.000017
   89  O  3 YY    0.000019   0.000033   0.000010   0.000010  -0.000012
   90  O  3 ZZ    0.000037   0.000020   0.000007   0.000006  -0.000023
   91  O  3 XY    0.000002   0.000012  -0.000015  -0.000014  -0.000005
   92  O  3 XZ   -0.000004   0.000009  -0.000008  -0.000003   0.000004
   93  O  3 YZ   -0.000032   0.000031   0.000002   0.000001   0.000033
   94  O  4  S    0.000002   0.000002   0.000000  -0.000008  -0.000004
   95  O  4  S    0.000008   0.000008  -0.000000   0.000017  -0.000021
   96  O  4  X   -0.000001  -0.000001   0.000001   0.000013   0.000002
   97  O  4  Y    0.000000   0.000000  -0.000000  -0.000008  -0.000001
   98  O  4  Z   -0.000001  -0.000001   0.000000  -0.000031  -0.000001
   99  O  4  S   -0.000037  -0.000037   0.000002   0.000102   0.000104
  100  O  4  X    0.000002   0.000002  -0.000004   0.000021   0.000006
  101  O  4  Y    0.000001   0.000001   0.000000  -0.000013  -0.000011
  102  O  4  Z    0.000008   0.000008  -0.000003  -0.000057  -0.000048
  103  O  4 XX    0.000007   0.000007   0.000000  -0.000016  -0.000019
  104  O  4 YY    0.000007   0.000008   0.000001  -0.000012  -0.000015
  105  O  4 ZZ    0.000002   0.000002   0.000001  -0.000026   0.000007
  106  O  4 XY    0.000001  -0.000001   0.000000   0.000003  -0.000003
  107  O  4 XZ    0.000000   0.000001  -0.000000   0.000010  -0.000004
  108  O  4 YZ   -0.000001  -0.000001   0.000000  -0.000005   0.000009
  109  O  5  S    0.000002   0.000002  -0.000008   0.000000  -0.000004
  110  O  5  S    0.000008   0.000008   0.000017  -0.000000  -0.000021
  111  O  5  X    0.000001   0.000001  -0.000020  -0.000001  -0.000003
  112  O  5  Y   -0.000000  -0.000000   0.000000   0.000000  -0.000000
  113  O  5  Z   -0.000001  -0.000001  -0.000028   0.000001  -0.000001
  114  O  5  S   -0.000037  -0.000037   0.000102   0.000002   0.000105
  115  O  5  X   -0.000000  -0.000000  -0.000034   0.000003  -0.000018
  116  O  5  Y    0.000001   0.000001  -0.000000  -0.000001  -0.000005
  117  O  5  Z    0.000008   0.000008  -0.000052  -0.000004  -0.000046
  118  O  5 XX    0.000006   0.000007  -0.000021   0.000000  -0.000013
  119  O  5 YY    0.000008   0.000007  -0.000011   0.000001  -0.000019
  120  O  5 ZZ    0.000003   0.000003  -0.000023   0.000001   0.000005
  121  O  5 XY   -0.000001   0.000001   0.000001   0.000000   0.000004
  122  O  5 XZ   -0.000002  -0.000002  -0.000012   0.000000   0.000012
  123  O  5 YZ   -0.000001  -0.000000   0.000001   0.000000   0.000004
  124  O  6  S    0.000002  -0.000004  -0.000001  -0.000001  -0.000008
  125  O  6  S    0.000007   0.000014   0.000012  -0.000002  -0.000037
  126  O  6  X   -0.000002  -0.000034   0.000014   0.000001   0.000005
  127  O  6  Y    0.000004   0.000007   0.000024  -0.000002  -0.000008
  128  O  6  Z   -0.000001  -0.000007   0.000011  -0.000001   0.000003
  129  O  6  S   -0.000021   0.000016  -0.000045   0.000011   0.000141
  130  O  6  X    0.000008  -0.000031   0.000002  -0.000001  -0.000033
  131  O  6  Y   -0.000010   0.000015   0.000023   0.000004   0.000054
  132  O  6  Z    0.000002  -0.000005   0.000016   0.000002  -0.000013
  133  O  6 XX    0.000010   0.000006   0.000010  -0.000004  -0.000031
  134  O  6 YY    0.000005   0.000001   0.000026  -0.000002  -0.000010
  135  O  6 ZZ    0.000010  -0.000003   0.000006  -0.000003  -0.000033
  136  O  6 XY    0.000003  -0.000001   0.000007  -0.000000  -0.000010
  137  O  6 XZ   -0.000000   0.000005   0.000006  -0.000001   0.000001
  138  O  6 YZ    0.000001   0.000002   0.000012   0.000001  -0.000005
  139  TI 7  S    0.996408   0.000241   0.000006   0.000005   0.295373
  140  TI 7  S   -0.012491  -0.000006  -0.000002  -0.000002   1.034213
  141  TI 7  X    0.000002   0.000000  -0.000001   0.000001  -0.000041
  142  TI 7  Y    0.000007   0.000001   0.000001   0.000000   0.000494
  143  TI 7  Z   -0.000002  -0.000000  -0.000001  -0.000001  -0.000937
  144  TI 7  S    0.020727  -0.000046  -0.000039  -0.000039   0.044188
  145  TI 7  X   -0.000006  -0.000001   0.000002  -0.000003  -0.000023
  146  TI 7  Y   -0.000029  -0.000007  -0.000002  -0.000000  -0.000042
  147  TI 7  Z    0.000015   0.000004  -0.000002  -0.000001  -0.000048
  148  TI 7  S   -0.000669  -0.000003   0.000026   0.000026   0.002624
  149  TI 7  X   -0.000018  -0.000003  -0.000006   0.000003  -0.000057
  150  TI 7  Y   -0.000090  -0.000021   0.000002  -0.000000  -0.000270
  151  TI 7  Z    0.000035   0.000022  -0.000017  -0.000018   0.000114
  152  TI 7  S   -0.000926   0.000267   0.000100   0.000100   0.002577
  153  TI 7  X    0.000039  -0.000024   0.000102  -0.000099  -0.000066
  154  TI 7  Y    0.000225  -0.000097  -0.000021   0.000026  -0.000429
  155  TI 7  Z   -0.000162  -0.000009   0.000006   0.000024   0.000388
  156  TI 7 XX    0.008222  -0.000019  -0.000024  -0.000025   0.012331
  157  TI 7 YY    0.008210  -0.000030  -0.000023  -0.000021   0.012198
  158  TI 7 ZZ    0.008212  -0.000024  -0.000021  -0.000022   0.012225
  159  TI 7 XY   -0.000003  -0.000003   0.000003  -0.000001  -0.000034
  160  TI 7 XZ   -0.000001   0.000000  -0.000001   0.000004  -0.000003
  161  TI 7 YZ    0.000002   0.000003   0.000004   0.000003   0.000023
  162  TI 7 XX    0.000180  -0.000008   0.000004   0.000003   0.002497
  163  TI 7 YY    0.000249   0.000001   0.000006   0.000009   0.002507
  164  TI 7 ZZ    0.000241   0.000010  -0.000003  -0.000005   0.002449
  165  TI 7 XY    0.000020   0.000002   0.000004  -0.000002  -0.000004
  166  TI 7 XZ    0.000006   0.000001  -0.000008   0.000005  -0.000020
  167  TI 7 YZ   -0.000001  -0.000003  -0.000001  -0.000004  -0.000055
  168  TI 7 XXX  -0.000002   0.000004  -0.000007   0.000008   0.000021
  169  TI 7 YYY   0.000020   0.000013   0.000004   0.000000  -0.000006
  170  TI 7 ZZZ  -0.000015  -0.000001  -0.000006  -0.000008   0.000039
  171  TI 7 XXY   0.000003   0.000008   0.000004   0.000001   0.000014
  172  TI 7 XXZ  -0.000015  -0.000002  -0.000004  -0.000005   0.000036
  173  TI 7 YYX   0.000005  -0.000000  -0.000004   0.000002  -0.000009
  174  TI 7 YYZ  -0.000006  -0.000001  -0.000003  -0.000003   0.000012
  175  TI 7 ZZX   0.000004   0.000001  -0.000005   0.000005  -0.000008
  176  TI 7 ZZY   0.000013   0.000005   0.000001  -0.000001  -0.000027
  177  TI 7 XYZ   0.000004  -0.000000   0.000001  -0.000001  -0.000013
  178  O  8  S    0.000002   0.000002   0.000004   0.000004  -0.000008
  179  O  8  S    0.000035   0.000035   0.000014   0.000014  -0.000029
  180  O  8  X    0.000009  -0.000004   0.000005  -0.000004  -0.000006
  181  O  8  Y    0.000030  -0.000025  -0.000000   0.000002  -0.000022
  182  O  8  Z    0.000017   0.000025   0.000005   0.000006  -0.000011
  183  O  8  S   -0.000118  -0.000118  -0.000053  -0.000053  -0.000085
  184  O  8  X   -0.000001  -0.000001  -0.000017   0.000012  -0.000022
  185  O  8  Y   -0.000002   0.000000   0.000001  -0.000006  -0.000077
  186  O  8  Z   -0.000006  -0.000006  -0.000022  -0.000024  -0.000045
  187  O  8 XX    0.000014   0.000014   0.000012   0.000014  -0.000024
  188  O  8 YY    0.000021   0.000020   0.000015   0.000015   0.000034
  189  O  8 ZZ    0.000016   0.000016   0.000009   0.000008   0.000003
  190  O  8 XY    0.000002   0.000001   0.000000   0.000001   0.000021
  191  O  8 XZ    0.000000  -0.000000  -0.000006   0.000004   0.000014
  192  O  8 YZ    0.000001  -0.000002   0.000000  -0.000002   0.000045
  193  TI 9  S   -0.000242   0.996408   0.000006   0.000006  -0.000039
  194  TI 9  S    0.000000  -0.012491  -0.000002  -0.000002  -0.000131
  195  TI 9  X   -0.000000  -0.000002  -0.000001   0.000001   0.000000
  196  TI 9  Y   -0.000001  -0.000007  -0.000000  -0.000001   0.000000
  197  TI 9  Z    0.000000   0.000000  -0.000001  -0.000001  -0.000000
  198  TI 9  S   -0.000056   0.020727  -0.000039  -0.000039   0.000132
  199  TI 9  X    0.000002   0.000008   0.000003  -0.000003  -0.000007
  200  TI 9  Y    0.000008   0.000032  -0.000000   0.000001  -0.000027
  201  TI 9  Z    0.000002   0.000006  -0.000002  -0.000002  -0.000007
  202  TI 9  S   -0.000002  -0.000669   0.000026   0.000026   0.000089
  203  TI 9  X    0.000007   0.000023  -0.000007   0.000002  -0.000047
  204  TI 9  Y    0.000025   0.000096  -0.000004  -0.000006  -0.000184
  205  TI 9  Z    0.000015   0.000007  -0.000016  -0.000017  -0.000032
  206  TI 9  S    0.000268  -0.000926   0.000100   0.000100  -0.000705
  207  TI 9  X    0.000019  -0.000069   0.000102  -0.000099  -0.000039
  208  TI 9  Y    0.000092  -0.000256  -0.000023   0.000025  -0.000194
  209  TI 9  Z   -0.000037  -0.000090   0.000006   0.000024   0.000081
  210  TI 9 XX   -0.000023   0.008222  -0.000026  -0.000023   0.000056
  211  TI 9 YY   -0.000034   0.008210  -0.000022  -0.000025   0.000087
  212  TI 9 ZZ   -0.000028   0.008212  -0.000019  -0.000020   0.000059
  213  TI 9 XY   -0.000003  -0.000003  -0.000002   0.000003   0.000009
  214  TI 9 XZ   -0.000001  -0.000001  -0.000002   0.000001   0.000000
  215  TI 9 YZ   -0.000000  -0.000000  -0.000003  -0.000004  -0.000000
  216  TI 9 XX   -0.000008   0.000180   0.000001   0.000006  -0.000003
  217  TI 9 YY    0.000003   0.000248   0.000010   0.000006  -0.000091
  218  TI 9 ZZ    0.000008   0.000242  -0.000003  -0.000005   0.000028
  219  TI 9 XY    0.000004   0.000020  -0.000003   0.000005  -0.000026
  220  TI 9 XZ    0.000003   0.000006  -0.000006   0.000004   0.000001
  221  TI 9 YZ    0.000005  -0.000006   0.000001  -0.000003  -0.000005
  222  TI 9 XXX  -0.000004  -0.000006  -0.000011   0.000005   0.000011
  223  TI 9 YYY  -0.000013  -0.000023  -0.000001  -0.000006  -0.000011
  224  TI 9 ZZZ   0.000002  -0.000005  -0.000006  -0.000008  -0.000007
  225  TI 9 XXY  -0.000008  -0.000006  -0.000003  -0.000004   0.000019
  226  TI 9 XXZ   0.000001  -0.000015  -0.000004  -0.000003  -0.000005
  227  TI 9 YYX   0.000000  -0.000005  -0.000003   0.000004  -0.000015
  228  TI 9 YYZ   0.000001  -0.000005  -0.000002  -0.000003   0.000004
  229  TI 9 ZZX  -0.000001  -0.000001  -0.000005   0.000004   0.000007
  230  TI 9 ZZY  -0.000005  -0.000015   0.000000  -0.000002   0.000029
  231  TI 9 XYZ   0.000001   0.000002  -0.000001   0.000002   0.000003
  232  O 10  S    0.000002  -0.000004  -0.000001  -0.000001  -0.000008
  233  O 10  S    0.000007   0.000014  -0.000002   0.000012  -0.000037
  234  O 10  X    0.000004   0.000032  -0.000002   0.000000  -0.000007
  235  O 10  Y    0.000002  -0.000009  -0.000001   0.000027  -0.000005
  236  O 10  Z   -0.000001  -0.000013  -0.000000   0.000012   0.000004
  237  O 10  S   -0.000021   0.000016   0.000011  -0.000045   0.000141
  238  O 10  X   -0.000012   0.000033   0.000003   0.000012   0.000051
  239  O 10  Y   -0.000005  -0.000001   0.000003   0.000020   0.000034
  240  O 10  Z    0.000003  -0.000010   0.000002   0.000015  -0.000020
  241  O 10 XX    0.000007   0.000005  -0.000003   0.000008  -0.000021
  242  O 10 YY    0.000008   0.000001  -0.000003   0.000027  -0.000021
  243  O 10 ZZ    0.000010  -0.000001  -0.000003   0.000007  -0.000032
  244  O 10 XY   -0.000004  -0.000001   0.000001   0.000005   0.000015
  245  O 10 XZ    0.000001  -0.000005   0.000002   0.000000  -0.000005
  246  O 10 YZ    0.000001   0.000005   0.000000   0.000013  -0.000006
  247  O 11  S   -0.000004   0.000002  -0.000001  -0.000001  -0.000007
  248  O 11  S    0.000014   0.000007  -0.000002   0.000012  -0.000024
  249  O 11  X    0.000032   0.000002  -0.000001  -0.000011  -0.000015
  250  O 11  Y   -0.000010  -0.000004   0.000001  -0.000020  -0.000003
  251  O 11  Z   -0.000013  -0.000001  -0.000001   0.000020   0.000007
  252  O 11  S    0.000016  -0.000021   0.000011  -0.000045  -0.000103
  253  O 11  X    0.000030  -0.000008   0.000002   0.000003  -0.000092
  254  O 11  Y   -0.000016   0.000010  -0.000003  -0.000018   0.000062
  255  O 11  Z   -0.000008   0.000001   0.000003   0.000021   0.000027
  256  O 11 XX    0.000004   0.000010  -0.000004   0.000007   0.000042
  257  O 11 YY   -0.000000   0.000005  -0.000003   0.000020  -0.000015
  258  O 11 ZZ    0.000000   0.000010  -0.000003   0.000014  -0.000024
  259  O 11 XY   -0.000003   0.000003   0.000000   0.000002  -0.000030
  260  O 11 XZ   -0.000006  -0.000000   0.000002  -0.000006  -0.000025
  261  O 11 YZ   -0.000002  -0.000000  -0.000001  -0.000016   0.000008
  262  O 12  S   -0.000004   0.000002  -0.000001  -0.000001  -0.000007
  263  O 12  S    0.000014   0.000007   0.000012  -0.000002  -0.000024
  264  O 12  X   -0.000035  -0.000004   0.000004   0.000002   0.000014
  265  O 12  Y    0.000006  -0.000003  -0.000023   0.000001  -0.000010
  266  O 12  Z   -0.000007   0.000000   0.000018  -0.000001   0.000005
  267  O 12  S    0.000016  -0.000021  -0.000045   0.000011  -0.000101
  268  O 12  X   -0.000035   0.000012  -0.000007  -0.000003   0.000114
  269  O 12  Y   -0.000001   0.000006  -0.000016  -0.000002   0.000014
  270  O 12  Z   -0.000002  -0.000001   0.000022   0.000003   0.000009
  271  O 12 XX    0.000006   0.000007   0.000008  -0.000004   0.000055
  272  O 12 YY   -0.000001   0.000008   0.000020  -0.000003  -0.000024
  273  O 12 ZZ   -0.000001   0.000010   0.000013  -0.000002  -0.000030
  274  O 12 XY   -0.000001  -0.000004   0.000002   0.000001  -0.000010
  275  O 12 XZ    0.000003   0.000001  -0.000000  -0.000002   0.000010
  276  O 12 YZ   -0.000005   0.000000  -0.000018  -0.000000  -0.000003

                      6          7          8          9         10
                  -20.6722   -20.6019   -20.5995   -19.7819   -19.7584
                     A          A          A          A          A   
    1  TI 1  S    0.000001  -0.000007   0.295370  -0.000011   0.000004
    2  TI 1  S    0.000004  -0.000039   1.034205  -0.000001  -0.000025
    3  TI 1  X    0.000000  -0.000002   0.001065   0.000026  -0.000003
    4  TI 1  Y   -0.000001   0.000000  -0.000534  -0.000006   0.000001
    5  TI 1  Z   -0.000001  -0.000000  -0.002132  -0.000002   0.000002
    6  TI 1  S    0.000122   0.000011   0.044295  -0.000202  -0.000093
    7  TI 1  X    0.000003   0.000006   0.000106  -0.000238   0.000094
    8  TI 1  Y   -0.000002  -0.000002  -0.000044   0.000054  -0.000036
    9  TI 1  Z   -0.000006  -0.000004  -0.000159   0.000012  -0.000090
   10  TI 1  S   -0.000048  -0.000357   0.002649   0.001109  -0.000697
   11  TI 1  X   -0.000002   0.000003   0.000151  -0.000659   0.000438
   12  TI 1  Y   -0.000002  -0.000004  -0.000039   0.000143  -0.000169
   13  TI 1  Z   -0.000027  -0.000021  -0.000057   0.000016  -0.000435
   14  TI 1  S   -0.000599  -0.000877   0.001896  -0.000058   0.000862
   15  TI 1  X   -0.000086  -0.000246   0.000329   0.000094   0.000156
   16  TI 1  Y    0.000236   0.000082  -0.000126  -0.000015  -0.000051
   17  TI 1  Z    0.000085   0.000175  -0.000332   0.000039  -0.000148
   18  TI 1 XX    0.000075   0.000032   0.012247  -0.000244   0.000026
   19  TI 1 YY    0.000070   0.000033   0.012244  -0.000208   0.000022
   20  TI 1 ZZ    0.000070   0.000034   0.012410  -0.000201   0.000027
   21  TI 1 XY   -0.000009   0.000000  -0.000017   0.000015   0.000001
   22  TI 1 XZ   -0.000013   0.000001  -0.000061   0.000020   0.000014
   23  TI 1 YZ    0.000014   0.000000   0.000048  -0.000004  -0.000003
   24  TI 1 XX   -0.000036  -0.000091   0.002555   0.000110  -0.000031
   25  TI 1 YY   -0.000006  -0.000046   0.002529   0.000156  -0.000013
   26  TI 1 ZZ   -0.000044  -0.000055   0.002493   0.000108  -0.000007
   27  TI 1 XY    0.000030   0.000012  -0.000020   0.000000  -0.000010
   28  TI 1 XZ    0.000065  -0.000000  -0.000095  -0.000032  -0.000087
   29  TI 1 YZ   -0.000042  -0.000002   0.000013   0.000002   0.000022
   30  TI 1 XXX   0.000015  -0.000028  -0.000007   0.000137  -0.000031
   31  TI 1 YYY  -0.000022   0.000002   0.000007   0.000029   0.000009
   32  TI 1 ZZZ  -0.000027  -0.000002   0.000113  -0.000007   0.000021
   33  TI 1 XXY   0.000000   0.000006  -0.000002  -0.000073   0.000004
   34  TI 1 XXZ  -0.000001   0.000002   0.000043  -0.000029   0.000005
   35  TI 1 YYX  -0.000005  -0.000007  -0.000023  -0.000035  -0.000013
   36  TI 1 YYZ   0.000004  -0.000003  -0.000003   0.000008   0.000006
   37  TI 1 ZZX   0.000007  -0.000005  -0.000044  -0.000074   0.000000
   38  TI 1 ZZY  -0.000013   0.000002   0.000036   0.000013   0.000002
   39  TI 1 XYZ  -0.000014  -0.000001  -0.000018   0.000008   0.000003
   40  TI 2  S    0.000001   0.295370   0.000011  -0.000011   0.000004
   41  TI 2  S    0.000004   1.034206   0.000027  -0.000001  -0.000025
   42  TI 2  X   -0.000001  -0.001525   0.000002  -0.000027   0.000003
   43  TI 2  Y   -0.000001   0.000066  -0.000001   0.000006  -0.000000
   44  TI 2  Z   -0.000001  -0.001877  -0.000000   0.000003   0.000002
   45  TI 2  S    0.000123   0.044292   0.000014  -0.000202  -0.000094
   46  TI 2  X   -0.000004  -0.000139  -0.000007   0.000234  -0.000113
   47  TI 2  Y   -0.000000   0.000009   0.000001  -0.000059   0.000014
   48  TI 2  Z   -0.000005  -0.000135  -0.000003  -0.000029  -0.000071
   49  TI 2  S   -0.000045   0.002652  -0.000356   0.001104  -0.000691
   50  TI 2  X   -0.000002  -0.000158  -0.000008   0.000638  -0.000529
   51  TI 2  Y   -0.000002   0.000032  -0.000001  -0.000170   0.000063
   52  TI 2  Z   -0.000026  -0.000026  -0.000020  -0.000097  -0.000345
   53  TI 2  S   -0.000597   0.001898  -0.000876  -0.000062   0.000865
   54  TI 2  X    0.000195  -0.000401   0.000281  -0.000080  -0.000188
   55  TI 2  Y    0.000169   0.000049  -0.000044   0.000028   0.000029
   56  TI 2  Z    0.000060  -0.000269   0.000128   0.000053  -0.000119
   57  TI 2 XX    0.000086   0.012281   0.000033  -0.000251   0.000020
   58  TI 2 YY    0.000064   0.012240   0.000034  -0.000205   0.000022
   59  TI 2 ZZ    0.000066   0.012377   0.000035  -0.000196   0.000030
   60  TI 2 XY    0.000003   0.000004   0.000000   0.000009  -0.000002
   61  TI 2 XZ    0.000015   0.000102   0.000000  -0.000009  -0.000013
   62  TI 2 YZ    0.000006   0.000003   0.000000   0.000003   0.000004
   63  TI 2 XX   -0.000072   0.002590  -0.000090   0.000132   0.000006
   64  TI 2 YY    0.000010   0.002517  -0.000047   0.000144  -0.000022
   65  TI 2 ZZ   -0.000023   0.002471  -0.000056   0.000095  -0.000031
   66  TI 2 XY   -0.000002  -0.000007   0.000013   0.000020   0.000007
   67  TI 2 XZ   -0.000072   0.000072   0.000007   0.000024   0.000087
   68  TI 2 YZ   -0.000006  -0.000026  -0.000004  -0.000012  -0.000022
   69  TI 2 XXX  -0.000008   0.000032   0.000028  -0.000141   0.000031
   70  TI 2 YYY  -0.000018  -0.000013  -0.000004  -0.000025  -0.000005
   71  TI 2 ZZZ  -0.000022   0.000091  -0.000004  -0.000036   0.000020
   72  TI 2 XXY   0.000008   0.000007  -0.000006   0.000070  -0.000003
   73  TI 2 XXZ   0.000006   0.000061  -0.000003   0.000031  -0.000003
   74  TI 2 YYX  -0.000014   0.000015   0.000006   0.000040   0.000015
   75  TI 2 YYZ  -0.000005  -0.000010  -0.000004   0.000000   0.000005
   76  TI 2 ZZX  -0.000020   0.000060   0.000005   0.000067   0.000005
   77  TI 2 ZZY  -0.000010   0.000009  -0.000001  -0.000021   0.000002
   78  TI 2 XYZ   0.000008  -0.000013  -0.000000  -0.000006   0.000000
   79  O  3  S   -0.000002  -0.000001  -0.000001   0.993496   0.000054
   80  O  3  S   -0.000004  -0.000009  -0.000009   0.023742  -0.000066
   81  O  3  X    0.000007  -0.000015   0.000015  -0.000054   0.000001
   82  O  3  Y    0.000023   0.000004  -0.000004  -0.000112   0.000001
   83  O  3  Z    0.000021   0.000002  -0.000001  -0.000362   0.000005
   84  O  3  S   -0.000024  -0.000030  -0.000029   0.009108   0.000481
   85  O  3  X    0.000035  -0.000196   0.000188   0.000022  -0.000024
   86  O  3  Y    0.000130   0.000042  -0.000050   0.000090  -0.000030
   87  O  3  Z    0.000051  -0.000015  -0.000049   0.000078  -0.000211
   88  O  3 XX    0.000015  -0.000032  -0.000030  -0.006547  -0.000035
   89  O  3 YY   -0.000025  -0.000010  -0.000011  -0.006589  -0.000013
   90  O  3 ZZ   -0.000007   0.000001  -0.000000  -0.006633  -0.000029
   91  O  3 XY   -0.000014   0.000006   0.000007   0.000011   0.000006
   92  O  3 XZ   -0.000010  -0.000000   0.000007  -0.000029  -0.000000
   93  O  3 YZ   -0.000029   0.000002   0.000000  -0.000036  -0.000003
   94  O  4  S   -0.000004   0.000002  -0.000025  -0.000016  -0.000004
   95  O  4  S   -0.000021   0.000005  -0.000040  -0.000067  -0.000022
   96  O  4  X    0.000002   0.000002   0.000008  -0.000036   0.000010
   97  O  4  Y   -0.000000  -0.000001  -0.000002   0.000009  -0.000002
   98  O  4  Z   -0.000001  -0.000003  -0.000000   0.000009   0.000003
   99  O  4  S    0.000106  -0.000026  -0.000022   0.000295   0.000108
  100  O  4  X    0.000007  -0.000004  -0.000081   0.000152  -0.000042
  101  O  4  Y   -0.000007   0.000001   0.000042  -0.000034   0.000012
  102  O  4  Z   -0.000049   0.000002   0.000159   0.000001   0.000010
  103  O  4 XX   -0.000017   0.000003  -0.000030  -0.000038  -0.000016
  104  O  4 YY   -0.000019   0.000004  -0.000045  -0.000059  -0.000018
  105  O  4 ZZ    0.000009   0.000010   0.000003  -0.000092  -0.000023
  106  O  4 XY    0.000002   0.000000  -0.000011  -0.000008  -0.000000
  107  O  4 XZ   -0.000006  -0.000000  -0.000038  -0.000013   0.000002
  108  O  4 YZ    0.000003   0.000001   0.000018  -0.000002  -0.000001
  109  O  5  S   -0.000004  -0.000025   0.000002  -0.000015  -0.000004
  110  O  5  S   -0.000021  -0.000040   0.000005  -0.000067  -0.000021
  111  O  5  X   -0.000002  -0.000009  -0.000003   0.000037  -0.000009
  112  O  5  Y    0.000001   0.000002   0.000000  -0.000008   0.000003
  113  O  5  Z   -0.000001   0.000001  -0.000003   0.000003   0.000005
  114  O  5  S    0.000105  -0.000025  -0.000026   0.000296   0.000103
  115  O  5  X   -0.000017   0.000117   0.000005  -0.000149   0.000045
  116  O  5  Y   -0.000001  -0.000005  -0.000001   0.000037  -0.000009
  117  O  5  Z   -0.000047   0.000141   0.000002   0.000026   0.000004
  118  O  5 XX   -0.000016  -0.000012   0.000003  -0.000035  -0.000016
  119  O  5 YY   -0.000018  -0.000049   0.000004  -0.000059  -0.000017
  120  O  5 ZZ    0.000006  -0.000009   0.000010  -0.000094  -0.000022
  121  O  5 XY   -0.000003  -0.000003   0.000000  -0.000006  -0.000001
  122  O  5 XZ    0.000012   0.000045   0.000002  -0.000000  -0.000004
  123  O  5 YZ   -0.000001  -0.000003   0.000001  -0.000005  -0.000000
  124  O  6  S   -0.000007  -0.000002   0.000002  -0.000022  -0.000030
  125  O  6  S   -0.000023  -0.000017   0.000008   0.000010  -0.000050
  126  O  6  X    0.000017  -0.000018   0.000000  -0.000012  -0.000004
  127  O  6  Y    0.000004  -0.000016   0.000003   0.000011   0.000004
  128  O  6  Z    0.000002  -0.000011   0.000003   0.000000   0.000010
  129  O  6  S   -0.000106  -0.000094  -0.000048   0.000132   0.000283
  130  O  6  X    0.000100  -0.000017  -0.000006   0.000031  -0.000134
  131  O  6  Y   -0.000057  -0.000100  -0.000014  -0.000044   0.000054
  132  O  6  Z    0.000021  -0.000055  -0.000016  -0.000006  -0.000123
  133  O  6 XX    0.000049  -0.000014   0.000012  -0.000004  -0.000019
  134  O  6 YY   -0.000017   0.000029   0.000006  -0.000046  -0.000020
  135  O  6 ZZ   -0.000030  -0.000008   0.000006   0.000010  -0.000008
  136  O  6 XY   -0.000026   0.000022   0.000003   0.000039  -0.000023
  137  O  6 XZ    0.000012   0.000010   0.000007   0.000016   0.000022
  138  O  6 YZ   -0.000004   0.000022  -0.000001  -0.000045  -0.000010
  139  TI 7  S    0.000042   0.000003   0.000003  -0.000004  -0.000007
  140  TI 7  S    0.000155   0.000013   0.000013  -0.000016   0.000053
  141  TI 7  X   -0.000000   0.000001  -0.000001  -0.000001  -0.000011
  142  TI 7  Y   -0.000000  -0.000001  -0.000000  -0.000010  -0.000040
  143  TI 7  Z   -0.000000   0.000000   0.000000   0.000016  -0.000017
  144  TI 7  S    0.000143   0.000126   0.000126  -0.000171   0.000475
  145  TI 7  X    0.000004   0.000000   0.000005   0.000000   0.000080
  146  TI 7  Y    0.000024   0.000011   0.000010   0.000036   0.000320
  147  TI 7  Z   -0.000014  -0.000001  -0.000001  -0.000085   0.000060
  148  TI 7  S    0.000090   0.000048   0.000050   0.000045   0.001362
  149  TI 7  X    0.000032  -0.000008   0.000035  -0.000022   0.000194
  150  TI 7  Y    0.000168   0.000068   0.000059  -0.000038   0.000871
  151  TI 7  Z   -0.000086  -0.000022  -0.000027  -0.000089  -0.000093
  152  TI 7  S   -0.000703  -0.000224  -0.000224   0.000296  -0.001053
  153  TI 7  X    0.000051  -0.000305   0.000290  -0.000002   0.000022
  154  TI 7  Y    0.000206   0.000047  -0.000094  -0.000079   0.000213
  155  TI 7  Z    0.000021   0.000012  -0.000041   0.000160  -0.000347
  156  TI 7 XX    0.000059   0.000072   0.000077  -0.000098   0.000078
  157  TI 7 YY    0.000088   0.000074   0.000066  -0.000123   0.000108
  158  TI 7 ZZ    0.000064   0.000064   0.000068  -0.000132   0.000059
  159  TI 7 XY    0.000007  -0.000012   0.000007  -0.000005   0.000011
  160  TI 7 XZ   -0.000002   0.000007  -0.000015   0.000004   0.000005
  161  TI 7 YZ   -0.000009  -0.000014  -0.000011   0.000032   0.000032
  162  TI 7 XX   -0.000000   0.000011  -0.000007  -0.000048  -0.000015
  163  TI 7 YY   -0.000079  -0.000015   0.000010  -0.000018   0.000235
  164  TI 7 ZZ    0.000016   0.000022   0.000015  -0.000053   0.000207
  165  TI 7 XY   -0.000019   0.000031  -0.000025   0.000009   0.000084
  166  TI 7 XZ    0.000011  -0.000012   0.000036  -0.000006   0.000044
  167  TI 7 YZ    0.000042   0.000045   0.000039  -0.000013   0.000068
  168  TI 7 XXX  -0.000012   0.000027  -0.000026   0.000012   0.000026
  169  TI 7 YYY   0.000007  -0.000017  -0.000015   0.000085  -0.000192
  170  TI 7 ZZZ   0.000012   0.000019   0.000019  -0.000025   0.000083
  171  TI 7 XXY  -0.000020  -0.000003   0.000007   0.000049   0.000009
  172  TI 7 XXZ   0.000000   0.000000  -0.000006  -0.000068   0.000034
  173  TI 7 YYX   0.000012  -0.000004  -0.000009   0.000007  -0.000096
  174  TI 7 YYZ  -0.000017  -0.000002   0.000011   0.000027  -0.000175
  175  TI 7 ZZX  -0.000004   0.000003   0.000004  -0.000011  -0.000019
  176  TI 7 ZZY  -0.000024   0.000002   0.000006  -0.000085  -0.000081
  177  TI 7 XYZ  -0.000005   0.000018  -0.000013   0.000014  -0.000075
  178  O  8  S   -0.000008  -0.000007  -0.000007  -0.000054   0.993479
  179  O  8  S   -0.000029  -0.000031  -0.000031   0.000053   0.023664
  180  O  8  X    0.000003  -0.000006   0.000005   0.000001   0.000049
  181  O  8  Y    0.000018   0.000001  -0.000002   0.000001   0.000059
  182  O  8  Z   -0.000017  -0.000004  -0.000005   0.000014   0.000382
  183  O  8  S   -0.000082   0.000124   0.000124  -0.000205   0.009650
  184  O  8  X    0.000009   0.000043  -0.000034  -0.000003   0.000027
  185  O  8  Y    0.000062  -0.000004   0.000014  -0.000003   0.000021
  186  O  8  Z   -0.000066   0.000036   0.000043  -0.000031   0.000206
  187  O  8 XX   -0.000028  -0.000013  -0.000019   0.000067  -0.006582
  188  O  8 YY    0.000013  -0.000035  -0.000033   0.000056  -0.006692
  189  O  8 ZZ    0.000028  -0.000011  -0.000007   0.000002  -0.006692
  190  O  8 XY    0.000007  -0.000003  -0.000006  -0.000004  -0.000012
  191  O  8 XZ   -0.000006   0.000016  -0.000013  -0.000009   0.000009
  192  O  8 YZ   -0.000050   0.000001   0.000008  -0.000008   0.000025
  193  TI 9  S    0.295373   0.000003   0.000003  -0.000004  -0.000007
  194  TI 9  S    1.034213   0.000014   0.000013  -0.000019   0.000056
  195  TI 9  X   -0.000181   0.000001  -0.000001   0.000005   0.000006
  196  TI 9  Y   -0.000757   0.000000   0.000001   0.000014   0.000035
  197  TI 9  Z   -0.000739   0.000000   0.000000   0.000013  -0.000029
  198  TI 9  S    0.044186   0.000125   0.000125  -0.000180   0.000486
  199  TI 9  X    0.000007  -0.000004   0.000000  -0.000016  -0.000058
  200  TI 9  Y    0.000024  -0.000010  -0.000011  -0.000043  -0.000302
  201  TI 9  Z   -0.000055   0.000003   0.000002  -0.000066   0.000154
  202  TI 9  S    0.002622   0.000048   0.000048  -0.000074   0.001445
  203  TI 9  X    0.000073  -0.000037   0.000004   0.000019  -0.000197
  204  TI 9  Y    0.000286  -0.000062  -0.000072   0.000090  -0.000887
  205  TI 9  Z    0.000033  -0.000003  -0.000007  -0.000053   0.000158
  206  TI 9  S    0.002573  -0.000224  -0.000222   0.000202  -0.000971
  207  TI 9  X    0.000141  -0.000296   0.000301   0.000025  -0.000087
  208  TI 9  Y    0.000508   0.000091  -0.000051   0.000067  -0.000264
  209  TI 9  Z    0.000245   0.000005  -0.000048   0.000110  -0.000263
  210  TI 9 XX    0.012319   0.000082   0.000069  -0.000095   0.000075
  211  TI 9 YY    0.012194   0.000070   0.000080  -0.000131   0.000090
  212  TI 9 ZZ    0.012238   0.000059   0.000061  -0.000111   0.000074
  213  TI 9 XY   -0.000040   0.000012  -0.000010  -0.000013   0.000000
  214  TI 9 XZ   -0.000012   0.000008  -0.000006  -0.000009  -0.000010
  215  TI 9 YZ   -0.000008   0.000008   0.000013  -0.000029  -0.000043
  216  TI 9 XX    0.002510  -0.000017   0.000014  -0.000062  -0.000034
  217  TI 9 YY    0.002523  -0.000004  -0.000032  -0.000010   0.000217
  218  TI 9 ZZ    0.002422   0.000040   0.000035  -0.000058   0.000272
  219  TI 9 XY    0.000009  -0.000040   0.000024   0.000018   0.000062
  220  TI 9 XZ    0.000000  -0.000016   0.000009   0.000009   0.000011
  221  TI 9 YZ    0.000034  -0.000024  -0.000036   0.000026  -0.000093
  222  TI 9 XXX   0.000001   0.000021  -0.000026  -0.000042  -0.000001
  223  TI 9 YYY   0.000018   0.000019   0.000014  -0.000051   0.000100
  224  TI 9 ZZZ   0.000018   0.000018   0.000021  -0.000062  -0.000022
  225  TI 9 XXY  -0.000006  -0.000014   0.000010  -0.000051  -0.000025
  226  TI 9 XXZ   0.000043  -0.000009   0.000005  -0.000041   0.000060
  227  TI 9 YYX   0.000011   0.000005   0.000009   0.000022   0.000029
  228  TI 9 YYZ   0.000021   0.000003  -0.000009   0.000087  -0.000169
  229  TI 9 ZZX   0.000001   0.000012  -0.000005   0.000011   0.000037
  230  TI 9 ZZY   0.000032   0.000002   0.000002   0.000036   0.000217
  231  TI 9 XYZ  -0.000002  -0.000011   0.000013   0.000050  -0.000038
  232  O 10  S   -0.000007   0.000002  -0.000002  -0.000023  -0.000030
  233  O 10  S   -0.000024   0.000008  -0.000018   0.000009  -0.000049
  234  O 10  X   -0.000013   0.000002   0.000006   0.000017   0.000007
  235  O 10  Y    0.000011   0.000003  -0.000022   0.000005   0.000002
  236  O 10  Z    0.000005   0.000003  -0.000013  -0.000002   0.000009
  237  O 10  S   -0.000104  -0.000049  -0.000093   0.000133   0.000279
  238  O 10  X   -0.000110  -0.000004  -0.000038  -0.000047   0.000121
  239  O 10  Y   -0.000007  -0.000015  -0.000094  -0.000027  -0.000010
  240  O 10  Z    0.000039  -0.000016  -0.000054   0.000001  -0.000146
  241  O 10 XX    0.000047   0.000007  -0.000021  -0.000047  -0.000009
  242  O 10 YY   -0.000022   0.000009   0.000034  -0.000008  -0.000035
  243  O 10 ZZ   -0.000024   0.000008  -0.000007   0.000018  -0.000001
  244  O 10 XY   -0.000014  -0.000004   0.000011  -0.000046   0.000013
  245  O 10 XZ   -0.000028  -0.000007   0.000004  -0.000025  -0.000023
  246  O 10 YZ    0.000004   0.000003   0.000024  -0.000027  -0.000002
  247  O 11  S   -0.000008   0.000002  -0.000002  -0.000022  -0.000026
  248  O 11  S   -0.000037   0.000008  -0.000017   0.000007  -0.000045
  249  O 11  X   -0.000004   0.000000   0.000014   0.000013   0.000006
  250  O 11  Y    0.000009  -0.000003   0.000013  -0.000013  -0.000002
  251  O 11  Z    0.000002   0.000004  -0.000018   0.000001   0.000009
  252  O 11  S    0.000140  -0.000049  -0.000097   0.000153   0.000255
  253  O 11  X    0.000031   0.000001   0.000002  -0.000032   0.000096
  254  O 11  Y   -0.000056   0.000010   0.000084   0.000042  -0.000079
  255  O 11  Z   -0.000007  -0.000020  -0.000082  -0.000005  -0.000127
  256  O 11 XX   -0.000031   0.000009  -0.000019  -0.000014  -0.000023
  257  O 11 YY   -0.000009   0.000007   0.000017  -0.000025  -0.000012
  258  O 11 ZZ   -0.000034   0.000009   0.000008   0.000000  -0.000005
  259  O 11 XY   -0.000010   0.000001   0.000013   0.000045  -0.000022
  260  O 11 XZ    0.000000  -0.000008  -0.000010  -0.000021  -0.000010
  261  O 11 YZ    0.000001   0.000001  -0.000032   0.000047   0.000017
  262  O 12  S   -0.000008  -0.000002   0.000002  -0.000021  -0.000026
  263  O 12  S   -0.000037  -0.000018   0.000008   0.000004  -0.000046
  264  O 12  X    0.000008  -0.000010  -0.000001  -0.000017  -0.000005
  265  O 12  Y    0.000006   0.000018  -0.000002  -0.000006   0.000000
  266  O 12  Z    0.000000  -0.000016   0.000004   0.000004   0.000010
[...]
             16  TI 1  Y      0.03478     0.06083
             17  TI 1  Z      0.02571     0.06489
             18  TI 1 XX      0.08283     0.47087
             19  TI 1 YY      0.08582     0.45363
             20  TI 1 ZZ      0.14451     0.48186
             21  TI 1 XY      0.08418     0.07451
             22  TI 1 XZ      0.21109     0.19542
             23  TI 1 YZ      0.21297     0.19273
             24  TI 1 XX      0.10966     0.19811
             25  TI 1 YY      0.14583     0.24260
             26  TI 1 ZZ      0.23408     0.31536
             27  TI 1 XY      0.12153     0.17206
             28  TI 1 XZ      0.21462     0.27421
             29  TI 1 YZ      0.23786     0.33545
             30  TI 1 XXX    -0.01520     0.25804
             31  TI 1 YYY    -0.01494     0.25440
             32  TI 1 ZZZ    -0.01299     0.25419
             33  TI 1 XXY    -0.00556     0.11832
             34  TI 1 XXZ    -0.00283     0.11953
             35  TI 1 YYX    -0.00570     0.11896
             36  TI 1 YYZ     0.00177     0.12494
             37  TI 1 ZZX    -0.00225     0.12445
             38  TI 1 ZZY     0.00056     0.12578
             39  TI 1 XYZ     0.00389     0.00723
             40  TI 2  S      1.99999     1.99963
             41  TI 2  S      2.00055     1.98714
             42  TI 2  X      1.99809     1.97887
             43  TI 2  Y      1.99814     1.97925
             44  TI 2  Z      1.99815     1.97907
             45  TI 2  S      2.08232     0.86187
             46  TI 2  X      2.03828     1.52759
             47  TI 2  Y      2.04187     1.53530
             48  TI 2  Z      2.03665     1.53130
             49  TI 2  S     -0.01118     0.11234
             50  TI 2  X      0.09447     0.17723
             51  TI 2  Y      0.14447     0.21144
             52  TI 2  Z      0.05390     0.17999
             53  TI 2  S      0.06155     0.06166
             54  TI 2  X      0.03202     0.06317
             55  TI 2  Y      0.03719     0.06070
             56  TI 2  Z      0.02389     0.06131
             57  TI 2 XX      0.09186     0.46379
             58  TI 2 YY      0.08071     0.45369
             59  TI 2 ZZ      0.11122     0.46150
             60  TI 2 XY      0.10753     0.09559
             61  TI 2 XZ      0.24390     0.22753
             62  TI 2 YZ      0.18288     0.16423
             63  TI 2 XX      0.16284     0.24883
             64  TI 2 YY      0.13603     0.22460
             65  TI 2 ZZ      0.19286     0.27427
             66  TI 2 XY      0.14685     0.20655
             67  TI 2 XZ      0.21224     0.28218
             68  TI 2 YZ      0.21820     0.30581
             69  TI 2 XXX    -0.01516     0.25603
             70  TI 2 YYY    -0.01573     0.25406
             71  TI 2 ZZZ    -0.01637     0.25308
             72  TI 2 XXY    -0.00495     0.11898
             73  TI 2 XXZ    -0.00021     0.12338
             74  TI 2 YYX    -0.00461     0.11959
             75  TI 2 YYZ     0.00064     0.12385
             76  TI 2 ZZX    -0.00021     0.12622
             77  TI 2 ZZY    -0.00124     0.12316
             78  TI 2 XYZ     0.00478     0.00885
             79  O  3  S      1.99370     1.97650
             80  O  3  S      0.86676     0.71648
             81  O  3  X      0.99269     0.96828
             82  O  3  Y      0.96482     0.93334
             83  O  3  Z      0.91497     0.88608
             84  O  3  S      1.10595     0.43483
             85  O  3  X      0.73777     0.63257
             86  O  3  Y      0.70485     0.66406
             87  O  3  Z      0.71856     0.67485
             88  O  3 XX      0.01500     0.18278
             89  O  3 YY     -0.00682     0.17111
             90  O  3 ZZ     -0.01185     0.16579
             91  O  3 XY      0.00191     0.00373
             92  O  3 XZ      0.00202     0.00342
             93  O  3 YZ      0.00356     0.00354
             94  O  4  S      1.99404     1.97762
             95  O  4  S      0.93186     0.74854
             96  O  4  X      0.88173     0.84456
             97  O  4  Y      0.95487     0.91405
             98  O  4  Z      0.92511     0.88585
             99  O  4  S      1.03125     0.49899
            100  O  4  X      0.64908     0.68581
            101  O  4  Y      0.66946     0.70271
            102  O  4  Z      0.55059     0.59480
            103  O  4 XX      0.00099     0.18395
            104  O  4 YY     -0.00418     0.18107
            105  O  4 ZZ      0.01385     0.18206
            106  O  4 XY      0.00050     0.00084
            107  O  4 XZ      0.00455     0.00687
            108  O  4 YZ      0.00517     0.00589
            109  O  5  S      1.99409     1.97772
            110  O  5  S      0.92578     0.74682
            111  O  5  X      0.93881     0.89783
            112  O  5  Y      0.89008     0.85455
            113  O  5  Z      0.92133     0.88108
            114  O  5  S      1.07083     0.50300
            115  O  5  X      0.61783     0.65866
            116  O  5  Y      0.70509     0.72667
            117  O  5  Z      0.56496     0.61188
            118  O  5 XX     -0.00425     0.18149
            119  O  5 YY     -0.01667     0.17741
            120  O  5 ZZ      0.00804     0.18310
            121  O  5 XY      0.00079     0.00101
            122  O  5 XZ      0.00514     0.00800
            123  O  5 YZ      0.00241     0.00267
            124  O  6  S      1.99379     1.97691
            125  O  6  S      0.88862     0.72343
            126  O  6  X      0.95373     0.91553
            127  O  6  Y      0.94869     0.91298
            128  O  6  Z      0.96032     0.92692
            129  O  6  S      1.05987     0.45143
            130  O  6  X      0.62400     0.61892
            131  O  6  Y      0.67182     0.65994
            132  O  6  Z      0.72616     0.71965
            133  O  6 XX      0.01826     0.18349
            134  O  6 YY      0.00765     0.17343
            135  O  6 ZZ     -0.00688     0.17264
            136  O  6 XY      0.00496     0.00669
            137  O  6 XZ      0.00217     0.00335
            138  O  6 YZ      0.00204     0.00277
            139  TI 7  S      1.99999     1.99963
            140  TI 7  S      2.00055     1.98719
            141  TI 7  X      1.99829     1.97990
            142  TI 7  Y      1.99809     1.97880
            143  TI 7  Z      1.99805     1.97865
            144  TI 7  S      2.08946     0.86290
            145  TI 7  X      2.04448     1.54222
            146  TI 7  Y      2.03976     1.52834
            147  TI 7  Z      2.04026     1.52830
            148  TI 7  S     -0.08030     0.11087
            149  TI 7  X      0.06328     0.19151
            150  TI 7  Y      0.07881     0.15521
            151  TI 7  Z      0.09874     0.15020
            152  TI 7  S      0.11289     0.05920
            153  TI 7  X      0.01348     0.05966
            154  TI 7  Y     -0.01665     0.05165
            155  TI 7  Z     -0.00688     0.04622
            156  TI 7 XX      0.13751     0.47288
            157  TI 7 YY      0.07399     0.44857
            158  TI 7 ZZ      0.05142     0.44197
            159  TI 7 XY      0.16641     0.14985
            160  TI 7 XZ      0.18279     0.16657
            161  TI 7 YZ      0.16757     0.15133
            162  TI 7 XX      0.26155     0.35156
            163  TI 7 YY      0.13398     0.20230
            164  TI 7 ZZ      0.10275     0.16332
            165  TI 7 XY      0.22409     0.28451
            166  TI 7 XZ      0.20604     0.27068
            167  TI 7 YZ      0.17068     0.26020
            168  TI 7 XXX    -0.00666     0.25842
            169  TI 7 YYY    -0.01561     0.25595
            170  TI 7 ZZZ    -0.02042     0.25419
            171  TI 7 XXY    -0.00225     0.12395
            172  TI 7 XXZ    -0.00148     0.12451
            173  TI 7 YYX    -0.00423     0.11739
            174  TI 7 YYZ     0.00009     0.12502
            175  TI 7 ZZX    -0.00548     0.11603
            176  TI 7 ZZY    -0.00163     0.12224
            177  TI 7 XYZ     0.00346     0.00660
            178  O  8  S      1.99373     1.97694
            179  O  8  S      0.89289     0.72732
            180  O  8  X      1.01456     0.97988
            181  O  8  Y      0.94836     0.90304
            182  O  8  Z      0.89034     0.85352
            183  O  8  S      1.07697     0.44308
            184  O  8  X      0.71844     0.71176
            185  O  8  Y      0.61594     0.59185
            186  O  8  Z      0.63852     0.63657
            187  O  8 XX     -0.01235     0.16886
            188  O  8 YY      0.01671     0.18453
            189  O  8 ZZ      0.00469     0.16981
            190  O  8 XY      0.00120     0.00230
            191  O  8 XZ      0.00396     0.00386
            192  O  8 YZ      0.00476     0.00692
            193  TI 9  S      1.99999     1.99963
            194  TI 9  S      2.00056     1.98723
            195  TI 9  X      1.99828     1.97986
            196  TI 9  Y      1.99806     1.97866
            197  TI 9  Z      1.99807     1.97877
            198  TI 9  S      2.08862     0.86294
            199  TI 9  X      2.04461     1.54167
            200  TI 9  Y      2.03844     1.52637
            201  TI 9  Z      2.03980     1.52945
            202  TI 9  S     -0.04631     0.11398
            203  TI 9  X      0.06837     0.18951
            204  TI 9  Y      0.08653     0.14564
            205  TI 9  Z      0.11916     0.16788
            206  TI 9  S      0.10723     0.05931
            207  TI 9  X      0.00942     0.05954
            208  TI 9  Y     -0.02583     0.05096
            209  TI 9  Z     -0.00036     0.04738
            210  TI 9 XX      0.13383     0.47304
            211  TI 9 YY      0.06290     0.44449
            212  TI 9 ZZ      0.04492     0.42627
            213  TI 9 XY      0.15209     0.13687
            214  TI 9 XZ      0.18961     0.17231
            215  TI 9 YZ      0.20138     0.18320
            216  TI 9 XX      0.24008     0.33936
            217  TI 9 YY      0.12734     0.18751
            218  TI 9 ZZ      0.11637     0.17785
            219  TI 9 XY      0.20937     0.26691
            220  TI 9 XZ      0.21912     0.28819
            221  TI 9 YZ      0.18873     0.28523
            222  TI 9 XXX    -0.00654     0.25861
            223  TI 9 YYY    -0.01686     0.25643
            224  TI 9 ZZZ    -0.02094     0.25289
            225  TI 9 XXY    -0.00297     0.12368
            226  TI 9 XXZ    -0.00121     0.12427
            227  TI 9 YYX    -0.00513     0.11646
            228  TI 9 YYZ     0.00117     0.12551
            229  TI 9 ZZX    -0.00518     0.11665
            230  TI 9 ZZY    -0.00060     0.12399
            231  TI 9 XYZ     0.00367     0.00669
            232  O 10  S      1.99383     1.97710
            233  O 10  S      0.89771     0.72724
            234  O 10  X      0.93221     0.89708
            235  O 10  Y      0.96949     0.92892
            236  O 10  Z      0.95522     0.92331
            237  O 10  S      1.06542     0.45409
            238  O 10  X      0.64138     0.63512
            239  O 10  Y      0.66418     0.64398
            240  O 10  Z      0.72165     0.71964
            241  O 10 XX     -0.00101     0.17160
            242  O 10 YY      0.00231     0.17574
            243  O 10 ZZ     -0.01028     0.17260
            244  O 10 XY      0.00414     0.00472
            245  O 10 XZ      0.00278     0.00453
            246  O 10 YZ      0.00197     0.00325
            247  O 11  S      1.99373     1.97677
            248  O 11  S      0.89049     0.72151
            249  O 11  X      0.93677     0.89936
            250  O 11  Y      0.95705     0.92265
            251  O 11  Z      0.97689     0.93861
            252  O 11  S      1.02850     0.44694
            253  O 11  X      0.64986     0.63051
            254  O 11  Y      0.68145     0.68035
            255  O 11  Z      0.68168     0.67806
            256  O 11 XX      0.01935     0.17982
            257  O 11 YY      0.01016     0.17382
            258  O 11 ZZ      0.01009     0.17772
            259  O 11 XY      0.00465     0.00570
            260  O 11 XZ      0.00318     0.00511
            261  O 11 YZ      0.00222     0.00350
            262  O 12  S      1.99378     1.97699
            263  O 12  S      0.90401     0.72810
            264  O 12  X      0.93207     0.89909
            265  O 12  Y      0.94770     0.91114
            266  O 12  Z      0.98850     0.95005
            267  O 12  S      1.02599     0.45046
            268  O 12  X      0.62990     0.62606
            269  O 12  Y      0.69426     0.67867
            270  O 12  Z      0.68774     0.68242
            271  O 12 XX      0.00805     0.17491
            272  O 12 YY      0.00725     0.17773
            273  O 12 ZZ      0.00333     0.17589
            274  O 12 XY      0.00284     0.00339
            275  O 12 XZ      0.00258     0.00357
            276  O 12 YZ      0.00162     0.00316

          ----- MULLIKEN ATOMIC OVERLAP POPULATIONS -----
          (OFF-DIAGONAL ELEMENTS NEED TO BE MULTIPLIED BY 2)

             1           2           3           4           5

    1   20.3154906
    2   -0.0619062  20.3022954
    3    0.0577120   0.0657515   8.7942410
    4    0.4106058  -0.0059074   0.0007940   8.2237915
    5   -0.0054524   0.4022172   0.0006431  -0.0000000   8.2495453
    6   -0.0041162   0.1195168  -0.0200940   0.0000002   0.0006455
    7   -0.2398986  -0.2179171   0.0740004  -0.0112699  -0.0115970
    8   -0.0207220  -0.0213840  -0.0112809  -0.0000005  -0.0000004
    9   -0.2217611  -0.2330472   0.1024184  -0.0106453  -0.0125033
   10    0.1157469  -0.0028086  -0.0209339   0.0006671   0.0000001
   11    0.1231648  -0.0047935  -0.0208743   0.0008465   0.0000002
   12   -0.0035805   0.1224018  -0.0184662   0.0000002   0.0007409

             6           7           8           9          10

    6    8.5642220
    7   -0.0036867  20.2581934
    8    0.0011718   0.1618980   8.5079214
    9    0.1995392  -0.1251820   0.1861582  20.2694583
   10   -0.0020663  -0.0020247   0.0010952   0.2098322   8.5409899
   11   -0.0000054   0.2045247   0.0021328  -0.0046052   0.0004890
   12    0.0000737   0.2098501   0.0017140  -0.0038507  -0.0000025

            11          12

   11    8.5473120
   12   -0.0021302   8.5228626

          TOTAL MULLIKEN AND LOWDIN ATOMIC POPULATIONS
       ATOM         MULL.POP.    CHARGE          LOW.POP.     CHARGE
    1 TI           20.465283    1.534717        21.220499    0.779501
    2 TI           20.464419    1.535581        21.223653    0.776347
    3 O             9.003911   -1.003911         8.417352   -0.417352
    4 O             8.608882   -0.608882         8.413609   -0.413609
    5 O             8.624239   -0.624239         8.411901   -0.411901
    6 O             8.855200   -0.855200         8.448087   -0.448087
    7 TI           20.296891    1.703109        21.078490    0.921510
    8 O             8.808704   -0.808704         8.360251   -0.360251
    9 TI           20.355811    1.644189        21.105182    0.894818
   10 O             8.840984   -0.840984         8.438913   -0.438913
   11 O             8.846062   -0.846062         8.440438   -0.440438
   12 O             8.829613   -0.829613         8.441625   -0.441625

          -------------------------------
          BOND ORDER AND VALENCE ANALYSIS     BOND ORDER THRESHOLD=0.050
          -------------------------------

                   BOND                       BOND                       BOND
  ATOM PAIR DIST  ORDER      ATOM PAIR DIST  ORDER      ATOM PAIR DIST  ORDER
    1   3  2.003  0.309        1   4  1.704  2.098        1   7  2.863  0.060
    1   9  2.863  0.062        1  10  1.844  0.664        1  11  1.844  0.674
    2   3  2.003  0.326        2   5  1.704  2.079        2   6  1.844  0.671
    2   7  2.863  0.058        2   9  2.863  0.062        2  12  1.844  0.675
    3   7  2.027  0.449        3   9  2.027  0.512        6   9  1.781  1.086
    7   8  1.804  0.906        7   9  2.786  0.095        7  11  1.781  1.096
    7  12  1.781  1.113        8   9  1.804  0.952        9  10  1.781  1.114

                       TOTAL       BONDED        FREE
      ATOM            VALENCE     VALENCE     VALENCE
    1 TI                3.797       3.797      -0.000
    2 TI                3.800       3.800      -0.000
    3 O                 1.645       1.645      -0.000
    4 O                 2.115       2.115      -0.000
    5 O                 2.100       2.100       0.000
    6 O                 1.831       1.831      -0.000
    7 TI                3.699       3.699       0.000
    8 O                 1.876       1.876       0.000
    9 TI                3.801       3.801       0.000
   10 O                 1.857       1.857      -0.000
   11 O                 1.843       1.843       0.000
   12 O                 1.864       1.864       0.000

          ---------------------
          ELECTROSTATIC MOMENTS
          ---------------------

 POINT   1           X           Y           Z (BOHR)    CHARGE
                 0.472005    0.218506    0.103067        0.00 (A.U.)
         DX          DY          DZ         /D/  (DEBYE)
    -1.007158   -1.024368   -8.438841    8.560241
 ...... END OF PROPERTY EVALUATION ......
 CPU     0: STEP CPU TIME=     0.07 TOTAL CPU TIME=         17.5 (      0.3 MIN)
 TOTAL WALL CLOCK TIME=         21.1 SECONDS, CPU UTILIZATION IS    82.92%
                942325  WORDS OF DYNAMIC MEMORY USED
 EXECUTION OF GAMESS TERMINATED NORMALLY Thu Jun 29 14:48:47 2023
 DDI: 263640 bytes (0.3 MB / 0 MWords) used by master data server.

 ----------------------------------------
 CPU timing information for all processes
 ========================================
 0: 14.320 + 3.202 = 17.522
 1: 14.543 + 2.882 = 17.426
 2: 14.424 + 2.868 = 17.293
 3: 14.833 + 3.540 = 18.374
 4: 14.708 + 3.271 = 17.979
 5: 15.12 + 2.846 = 17.858
 6: 14.175 + 2.948 = 17.124
 7: 15.564 + 3.206 = 18.770
 8: 14.379 + 2.886 = 17.265
 9: 15.237 + 3.264 = 18.501
 10: 14.234 + 3.248 = 17.482
 11: 14.569 + 2.943 = 17.512
 ----------------------------------------
 ddikick.x: exited gracefully.
unset echo
----- accounting info -----
Files used on the master node cpn-p27-16.compute.cbls.ccr.buffalo.edu were:
-rw-rw-r-- 1 mrecio mrecio   1238262 Jun 29 14:48 /user/mrecio/work-dir/gam-scr/tme-00-rhf.dat
-rw-rw-r-- 1 mrecio mrecio       883 Jun 29 14:48 /user/mrecio/work-dir/gam-scr/tme-00-rhf.F05
-rw-rw-r-- 1 mrecio mrecio 525395024 Jun 29 14:49 /user/mrecio/work-dir/gam-scr/tme-00-rhf.F08
-rw-rw-r-- 1 mrecio mrecio 554676976 Jun 29 14:49 /user/mrecio/work-dir/gam-scr/tme-00-rhf.F08.001
-rw-rw-r-- 1 mrecio mrecio 547716512 Jun 29 14:49 /user/mrecio/work-dir/gam-scr/tme-00-rhf.F08.002
-rw-rw-r-- 1 mrecio mrecio 583238880 Jun 29 14:49 /user/mrecio/work-dir/gam-scr/tme-00-rhf.F08.003
-rw-rw-r-- 1 mrecio mrecio 554916992 Jun 29 14:49 /user/mrecio/work-dir/gam-scr/tme-00-rhf.F08.004
-rw-rw-r-- 1 mrecio mrecio 590679376 Jun 29 14:49 /user/mrecio/work-dir/gam-scr/tme-00-rhf.F08.005
-rw-rw-r-- 1 mrecio mrecio 507153808 Jun 29 14:49 /user/mrecio/work-dir/gam-scr/tme-00-rhf.F08.006
-rw-rw-r-- 1 mrecio mrecio 628361888 Jun 29 14:49 /user/mrecio/work-dir/gam-scr/tme-00-rhf.F08.007
-rw-rw-r-- 1 mrecio mrecio 527555168 Jun 29 14:49 /user/mrecio/work-dir/gam-scr/tme-00-rhf.F08.008
-rw-rw-r-- 1 mrecio mrecio 601960128 Jun 29 14:49 /user/mrecio/work-dir/gam-scr/tme-00-rhf.F08.009
-rw-rw-r-- 1 mrecio mrecio 536915792 Jun 29 14:49 /user/mrecio/work-dir/gam-scr/tme-00-rhf.F08.010
-rw-rw-r-- 1 mrecio mrecio 562837520 Jun 29 14:49 /user/mrecio/work-dir/gam-scr/tme-00-rhf.F08.011
-rw-rw-r-- 1 mrecio mrecio  49152000 Jun 29 14:49 /user/mrecio/work-dir/gam-scr/tme-00-rhf.F10
ls: No match.
ls: No match.
ls: No match.
Thu Jun 29 14:49:45 EDT 2023
0.285u 1.034s 1:19.69 1.6%	0+0k 8+192io 0pf+0w
