----- GAMESS execution script 'rungms' -----
This job is running on host cpn-p27-17.compute.cbls.ccr.buffalo.edu
under operating system Linux at Thu Jun 29 19:46:29 EDT 2023
Available scratch disk space (Kbyte units) at beginning of the job is
Filesystem                      1K-blocks    Used Available Use% Mounted on
vast.cbls.ccr.buffalo.edu:/user  10742784 8307712   2435072  78% /user
GAMESS temporary binary files will be written to /user/mrecio/work-dir/gam-scr
GAMESS supplementary output files will be written to /user/mrecio/work-dir/gam-scr
Copying input file tme-00-reks_SA_REKS22.inp to your run's scratch directory...
cp tme-00-reks_SA_REKS22.inp /user/mrecio/work-dir/gam-scr/tme-00-reks_SA_REKS22.F05
unset echo
 
Assuming a single but multicore node.
 
/projects/academic/cyberwksp21/Software/gamess-2018/qmmm-reks-2018-6.3/ddikick.x /projects/academic/cyberwksp21/Software/gamess-2018/qmmm-reks-2018-6.3/gamess.01.x tme-00-reks_SA_REKS22 -ddi 1 12 cpn-p27-17.compute.cbls.ccr.buffalo.edu:cpus=12 -scr /user/mrecio/work-dir/gam-scr

 Distributed Data Interface kickoff program.
 Initiating 12 compute processes on 1 nodes to run the following command:
 /projects/academic/cyberwksp21/Software/gamess-2018/qmmm-reks-2018-6.3/gamess.01.x tme-00-reks_SA_REKS22 

          ******************************************************
          *         GAMESS VERSION = 30 SEP 2018 (R3)         *
          *             FROM IOWA STATE UNIVERSITY             *
          * M.W.SCHMIDT, K.K.BALDRIDGE, J.A.BOATZ, S.T.ELBERT, *
          *   M.S.GORDON, J.H.JENSEN, S.KOSEKI, N.MATSUNAGA,   *
          *          K.A.NGUYEN, S.J.SU, T.L.WINDUS,           *
          *       TOGETHER WITH M.DUPUIS, J.A.MONTGOMERY       *
          *         J.COMPUT.CHEM.  14, 1347-1363(1993)        *
          **************** 64 BIT INTEL VERSION ****************

  SINCE 1993, STUDENTS AND POSTDOCS WORKING AT IOWA STATE UNIVERSITY
  AND ALSO IN THEIR VARIOUS JOBS AFTER LEAVING ISU HAVE MADE IMPORTANT
  CONTRIBUTIONS TO THE CODE:
     IVANA ADAMOVIC, CHRISTINE AIKENS, YURI ALEXEEV, POOJA ARORA,
     ANDREY ASADCHEV, ROB BELL, PRADIPTA BANDYOPADHYAY, JONATHAN BENTZ,
     BRETT BODE, KURT BRORSEN, CALEB CARLIN, GALINA CHABAN, WEI CHEN,
     CHEOL HO CHOI, PAUL DAY, ALBERT DEFUSCO, NUWAN DESILVA, TIM DUDLEY,
     DMITRI FEDOROV, ALEX FINDLATER, GRAHAM FLETCHER, MARK FREITAG,
     KURT GLAESEMANN, ANASTASIA GUNINA,
     DAN KEMP, GRANT MERRILL, NORIYUKI MINEZAWA, JONATHAN MULLIN,
     TAKESHI NAGATA, SEAN NEDD, HEATHER NETZLOFF, BOSILJKA NJEGIC, RYAN OLSON,
     MIKE PAK, BUU PHAM,
     SPENCER PRUITT, LUKE ROSKOP, JIM SHOEMAKER, LYUDMILA SLIPCHENKO,
     TONY SMITH, SAROM SOK LEANG, JIE SONG, TETSUYA TAKETSUGU, SIMON WEBB,
     PENG XU, SOOHAENG YOO, FEDERICO ZAHARIEV

  ADDITIONAL CODE HAS BEEN PROVIDED BY COLLABORATORS IN OTHER GROUPS:
     IOWA STATE UNIVERSITY:
          JOE IVANIC, AARON WEST, LAIMUTIS BYTAUTAS, KLAUS RUEDENBERG
     UNIVERSITY OF TOKYO: KIMIHIKO HIRAO, TAKAHITO NAKAJIMA,
          TAKAO TSUNEDA, MUNEAKI KAMIYA, SUSUMU YANAGISAWA,
          KIYOSHI YAGI, MAHITO CHIBA, SEIKEN TOKURA, NAOAKI KAWAKAMI
     UNIVERSITY OF AARHUS: FRANK JENSEN
     UNIVERSITY OF IOWA: VISVALDAS KAIRYS, HUI LI
     NATIONAL INST. OF STANDARDS AND TECHNOLOGY: WALT STEVENS, DAVID GARMER
     UNIVERSITY OF PISA: BENEDETTA MENNUCCI, JACOPO TOMASI
     UNIVERSITY OF MEMPHIS: HENRY KURTZ, PRAKASHAN KORAMBATH
     UNIVERSITY OF ALBERTA: TOBY ZENG, MARIUSZ KLOBUKOWSKI
     UNIVERSITY OF NEW ENGLAND: MARK SPACKMAN
     MIE UNIVERSITY: HIROAKI UMEDA
     NAT. INST. OF ADVANCED INDUSTRIAL SCIENCE AND TECHNOLOGY: KAZUO KITAURA
     MICHIGAN STATE UNIVERSITY:
          KAROL KOWALSKI, MARTA WLOCH, JEFFREY GOUR, JESSE LUTZ,
          WEI LI, JUN SHEN, J. EMILIANO DEUSTUA, PIOTR PIECUCH
     UNIVERSITY OF MINNESOTA:
          YINAN SHU
     UNIVERSITY OF SILESIA: MONIKA MUSIAL, STANISLAW KUCHARSKI
     FACULTES UNIVERSITAIRES NOTRE-DAME DE LA PAIX:
          OLIVIER QUINET, BENOIT CHAMPAGNE
     UNIVERSITY OF CALIFORNIA - SANTA BARBARA: BERNARD KIRTMAN
     INSTITUTE FOR MOLECULAR SCIENCE:
          KAZUYA ISHIMURA, MICHIO KATOUDA, AND SHIGERU NAGASE
     UNIVERSITY OF NOTRE DAME: ANNA POMOGAEVA, DAN CHIPMAN
     KYUSHU UNIVERSITY:
          HARUYUKI NAKANO,
          FENG LONG GU, JACEK KORCHOWIEC, MARCIN MAKOWSKI, AND YURIKO AOKI,
          HIROTOSHI MORI AND EISAKU MIYOSHI
     PENNSYLVANIA STATE UNIVERSITY:
          TZVETELIN IORDANOV, CHET SWALINA, JONATHAN SKONE,
          SHARON HAMMES-SCHIFFER
     WASEDA UNIVERSITY:
          MASATO KOBAYASHI, TOMOKO AKAMA, TSUGUKI TOUMA,
          TAKESHI YOSHIKAWA, YASUHIRO IKABATA, JUNJI SEINO,
          YUYA NAKAJIMA, HIROMI NAKAI
     NANJING UNIVERSITY: SHUHUA LI
     UNIVERSITY OF NEBRASKA:
          PEIFENG SU, DEJUN SI, NANDUN THELLAMUREGE, YALI WANG, HUI LI
     UNIVERSITY OF ZURICH: ROBERTO PEVERATI, KIM BALDRIDGE
     N. COPERNICUS UNIVERSITY AND JACKSON STATE UNIVERSITY:
          MARIA BARYSZ
     UNIVERSITY OF COPENHAGEN: Jimmy Kromann, CASPER STEINMANN
     TOKYO INSTITUTE OF TECHNOLOGY: HIROYA NAKATA
     NAGOYA UNIVERSITY: YOSHIO NISHIMOTO, STEPHAN IRLE
     MOSCOW STATE UNIVERSITY: VLADIMIR MIRONOV


 PARALLEL VERSION RUNNING ON       12 PROCESSORS IN        1 NODES.

 EXECUTION OF GAMESS BEGUN Thu Jun 29 19:46:30 2023

            ECHO OF THE FIRST FEW INPUT CARDS -
 INPUT CARD> $contrl scftyp=reks runtyp=energy dfttyp=bhhlyp icharg=0                       
 INPUT CARD>         maxit=10000 mult=1                                                     
 INPUT CARD> $end                                                                           
 INPUT CARD> $dft sg1=.true. $end                                                           
 INPUT CARD> $scf                                                                           
 INPUT CARD> nconv=6                                                                        
 INPUT CARD> npunch=2                                                                       
 INPUT CARD> $end                                                                           
 INPUT CARD>$reks                                                                           
 INPUT CARD> rexType=0                                                                      
 INPUT CARD> rexTarget=0                                                                    
 INPUT CARD>wpps=0.95                                                                       
 INPUT CARD>rexShift=0.4                                                                    
 INPUT CARD>rexDIIS=no                                                                      
 INPUT CARD>$end                                                                            
 INPUT CARD> $basis gbasis=n31 ngauss=6 ndfunc=1 $end                                       
 INPUT CARD> $guess guess=moread norb=106 $end                                              
 INPUT CARD> $system timlim=999999100 mwords=700 $end                                       
 INPUT CARD> $data                                                                          
 INPUT CARD>TME planar S0 state                                                             
 INPUT CARD> c1                                                                             
 INPUT CARD>Ti 22.0 -1.616636    0.656520    0.857481                                       
 INPUT CARD>Ti 22.0 2.265088   -0.268274    0.514860                                        
 INPUT CARD>O  8.0 0.321234    0.190969    0.660789                                         
 INPUT CARD>O  8.0 -2.266158    1.033202    2.386633                                        
 INPUT CARD>O  8.0 3.258007   -0.282900    1.899051                                         
 INPUT CARD>O  8.0 1.540038   -1.778741   -0.255275                                         
 INPUT CARD>Ti 22.0 0.452557    1.355073   -0.993506                                        
 INPUT CARD>O  8.0 0.016948   -0.129841   -1.920700                                         
 INPUT CARD>Ti 22.0 -0.152286   -1.333916   -0.588040                                       
 INPUT CARD>O  8.0 -1.783296   -0.986980    0.038062                                        
 INPUT CARD>O  8.0 -1.130530    1.915066   -0.399532                                        
 INPUT CARD>O  8.0  2.192804    1.123305   -0.692866                                        
 INPUT CARD> $end                                                                           
 INPUT CARD> $VEC                                                                           
 INPUT CARD> 1  1-6.60253613E-06-1.32534013E-07-6.16149015E-07-6.74438382E-07 7.67257522E-07
 INPUT CARD> 1  2-3.21440897E-05-4.95311236E-06 3.69233861E-06 6.71113615E-06 7.46054519E-05
 INPUT CARD> 1  3-3.44281884E-05 8.43030559E-06 4.80220247E-05 2.47315161E-04 7.69732208E-05
 INPUT CARD> 1  4 4.16681065E-05-6.75066831E-05-2.51406721E-05-2.04753977E-05-2.21338688E-05
 INPUT CARD> 1  5 9.85319817E-07 2.82271116E-06 2.79103322E-06 1.27657116E-05 7.80416287E-06
 INPUT CARD> 1  6 4.39681136E-06-1.22356709E-05 4.62894502E-06-8.92350353E-07-3.10080488E-06
 INPUT CARD> 1  7-4.67424087E-06 7.78101833E-06-5.44160736E-06 3.07377318E-06-3.48288211E-06
 INPUT CARD> 1  8 2.15543496E-06-6.44741912E-06-2.18034302E-06 7.04530224E-07-6.78630213E-06
 INPUT CARD> 1  9-1.31755304E-07 3.67269191E-07-9.08794786E-07 6.80870846E-07-3.21584777E-05
 INPUT CARD> 1 10 7.11247740E-06 8.16063425E-07 5.64184207E-06 7.45733501E-05 4.19680503E-05
 INPUT CARD> 1 11-9.78393550E-06 4.12642911E-05 2.47283070E-04-6.01717370E-05 7.43464410E-05
 INPUT CARD> 1 12-5.53919929E-05-2.51530643E-05-2.09868659E-05-2.16175107E-05 2.22560130E-06
 INPUT CARD> 1 13-5.76673528E-07 3.48940451E-06 1.86014263E-05 2.28243721E-07 6.15229531E-06
 INPUT CARD> 1 14 5.31898762E-06-7.06300386E-06 2.10669644E-07 3.97759713E-08-8.83556047E-06
 INPUT CARD> 1 15 5.48494271E-06-2.79465272E-06 4.11110828E-06 3.62352681E-06 2.18611557E-06
  700000000 WORDS OF MEMORY AVAILABLE

 ERROR: MAXIT MUST BE BETWEEN 0 AND 200, NOT   10000

     BASIS OPTIONS
     -------------
     GBASIS=N31          IGAUSS=       6      POLAR=POPN31  
     NDFUNC=       1     NFFUNC=       0     DIFFSP=       F
     NPFUNC=       0      DIFFS=       F     BASNAM=        


     RUN TITLE
     ---------
 TME planar S0 state                                                             

 THE POINT GROUP OF THE MOLECULE IS C1      
 THE ORDER OF THE PRINCIPAL AXIS IS     0

 ATOM      ATOMIC                      COORDINATES (BOHR)
           CHARGE         X                   Y                   Z
 TI         22.0    -3.0549990619        1.2406429055        1.6204041297
 TI         22.0     4.2803956581       -0.5069643496        0.9729443220
 O           8.0     0.6070442379        0.3608790821        1.2487101457
 O           8.0    -4.2824176649        1.9524686700        4.5100824033
 O           8.0     6.1567404961       -0.5346034819        3.5886860267
 O           8.0     2.9102498307       -3.3613330931       -0.4823998015
 TI         22.0     0.8552087238        2.5607166634       -1.8774541072
 O           8.0     0.0320270760       -0.2453639120       -3.6295967046
 TI         22.0    -0.2877788118       -2.5207357306       -1.1112344698
 O           8.0    -3.3699407950       -1.8651217554        0.0719267505
 O           8.0    -2.1363919209        3.6189499884       -0.7550060033
 O           8.0     4.1437987048        2.1227386506       -1.3093268862

          INTERNUCLEAR DISTANCES (ANGS.)
          ------------------------------

                1 TI         2 TI         3 O          4 O          5 O     

   1 TI      0.0000000    4.0050486    2.0026896 *  1.7035475 *  5.0724277  
   2 TI      4.0050486    0.0000000    2.0026901 *  5.0724318    1.7035512 *
   3 O       2.0026896 *  2.0026901 *  0.0000000    3.2221873    3.2221856  
   4 O       1.7035475 *  5.0724318    3.2221873    0.0000000    5.6996719  
   5 O       5.0724277    1.7035512 *  3.2221856    5.6996719    0.0000000  
   6 O       4.1392406    1.8439946 *  2.4908661 *  5.4197628    3.1352956  
   7 TI      2.8628114 *  2.8628119 *  2.0270855 *  4.3497531    4.3497576  
   8 O       3.3174162    3.3174161    2.6190828 *  5.0118220    5.0118248  
   9 TI      2.8628111 *  2.8628095 *  2.0270839 *  4.3497565    4.3497534  
  10 O       1.8439944 *  4.1392376    2.4908632 *  3.1352953    5.4197550  
  11 O       1.8439953 *  4.1392400    2.4908653 *  3.1352911    5.4197597  
  12 O       4.1392387    1.8439954 *  2.4908646 *  5.4197578    3.1352996  

                6 O          7 TI         8 O          9 TI        10 O     

   1 TI      4.1392406    2.8628114 *  3.3174162    2.8628111 *  1.8439944 *
   2 TI      1.8439946 *  2.8628119 *  3.3174161    2.8628095 *  4.1392376  
   3 O       2.4908661 *  2.0270855 *  2.6190828 *  2.0270839 *  2.4908632 *
   4 O       5.4197628    4.3497531    5.0118220    4.3497565    3.1352953  
   5 O       3.1352956    4.3497576    5.0118248    4.3497534    5.4197550  
   6 O       0.0000000    3.3982922    2.7950518 *  1.7811688 *  3.4289183  
   7 TI      3.3982922    0.0000000    1.8039993 *  2.7858391 *  3.3982913  
   8 O       2.7950518 *  1.8039993 *  0.0000000    1.8040010 *  2.7950518 *
   9 TI      1.7811688 *  2.7858391 *  1.8040010 *  0.0000000    1.7811687 *
  10 O       3.4289183    3.3982913    2.7950518 *  1.7811687 *  0.0000000  
  11 O       4.5603677    1.7811686 *  2.7950496 *  3.3982908    3.0065700  
  12 O       3.0065695    1.7811683 *  2.7950493 *  3.3982894    4.5603651  

               11 O         12 O     

   1 TI      1.8439953 *  4.1392387  
   2 TI      4.1392400    1.8439954 *
   3 O       2.4908653 *  2.4908646 *
   4 O       3.1352911    5.4197578  
   5 O       5.4197597    3.1352996  
   6 O       4.5603677    3.0065695  
   7 TI      1.7811686 *  1.7811683 *
   8 O       2.7950496 *  2.7950493 *
   9 TI      3.3982908    3.3982894  
  10 O       3.0065700    4.5603651  
  11 O       0.0000000    3.4289181  
  12 O       3.4289181    0.0000000  

  * ... LESS THAN  3.000


     ATOMIC BASIS SET
     ----------------
 THE CONTRACTED PRIMITIVE FUNCTIONS HAVE BEEN UNNORMALIZED
 THE CONTRACTED BASIS FUNCTIONS ARE NOW NORMALIZED TO UNITY

  SHELL TYPE  PRIMITIVE        EXPONENT          CONTRACTION COEFFICIENT(S)

 TI        

      1   S       1         43152.9500000    0.001791871976
      1   S       2          6479.5710000    0.013723919819
      1   S       3          1475.6750000    0.067628299108
      1   S       4           415.6991000    0.233764196917
      1   S       5           133.0006000    0.481069593655
      1   S       6            45.2722200    0.346227995434

      2   L       7           874.6826000    0.002431008053    0.004017679296
      2   L       8           207.9785000    0.032330270707    0.031139662298
      2   L       9            66.8791800    0.124252002716    0.134907709955
      2   L      10            24.8734700   -0.039039050853    0.343167225322
      2   L      11             9.9684410   -0.617178913492    0.462576034134
      2   L      12             4.0638260   -0.447309709779    0.215460315899

      3   L      13            33.6436300   -0.002940357957   -0.006311620001
      3   L      14            10.8756500    0.071631028943   -0.026976380003
      3   L      15             4.6282250    0.252891496268    0.053168470005
      3   L      16             1.9501260   -0.296640095622    0.384554900038
      3   L      17             0.8094520   -0.743221489032    0.512766200050
      3   L      18             0.3204740   -0.185351997265    0.181113500018

      4   L      19             1.2241480    0.063514607166   -0.211207009897
      4   L      20             0.4842630    0.315140187469    0.077719983642
      4   L      21             0.0840960   -1.162594215945    0.989821446382

      5   L      22             0.0320360    1.000000000000    1.000000000000

      6   D      23            13.6908500    0.085894178803
      6   D      24             3.5131540    0.378467094726
      6   D      25             1.0404340    0.716123890021

      7   D      26             0.2869620    1.000000000000

      8   F      27             0.8000000    1.000000000000

 TI        

      9   S      28         43152.9500000    0.001791871976
      9   S      29          6479.5710000    0.013723919819
      9   S      30          1475.6750000    0.067628299108
      9   S      31           415.6991000    0.233764196917
      9   S      32           133.0006000    0.481069593655
      9   S      33            45.2722200    0.346227995434

     10   L      34           874.6826000    0.002431008053    0.004017679296
     10   L      35           207.9785000    0.032330270707    0.031139662298
     10   L      36            66.8791800    0.124252002716    0.134907709955
     10   L      37            24.8734700   -0.039039050853    0.343167225322
     10   L      38             9.9684410   -0.617178913492    0.462576034134
     10   L      39             4.0638260   -0.447309709779    0.215460315899

     11   L      40            33.6436300   -0.002940357957   -0.006311620001
     11   L      41            10.8756500    0.071631028943   -0.026976380003
     11   L      42             4.6282250    0.252891496268    0.053168470005
     11   L      43             1.9501260   -0.296640095622    0.384554900038
     11   L      44             0.8094520   -0.743221489032    0.512766200050
     11   L      45             0.3204740   -0.185351997265    0.181113500018

     12   L      46             1.2241480    0.063514607166   -0.211207009897
     12   L      47             0.4842630    0.315140187469    0.077719983642
     12   L      48             0.0840960   -1.162594215945    0.989821446382

     13   L      49             0.0320360    1.000000000000    1.000000000000

     14   D      50            13.6908500    0.085894178803
     14   D      51             3.5131540    0.378467094726
     14   D      52             1.0404340    0.716123890021

     15   D      53             0.2869620    1.000000000000

     16   F      54             0.8000000    1.000000000000

 O         

     17   S      55          5484.6716600    0.001831074430
     17   S      56           825.2349460    0.013950172200
     17   S      57           188.0469580    0.068445078098
     17   S      58            52.9645000    0.232714335992
     17   S      59            16.8975704    0.470192897984
     17   S      60             5.7996353    0.358520852987

     18   L      61            15.5396162   -0.110777549525    0.070874268231
     18   L      62             3.5999336   -0.148026262701    0.339752839147
     18   L      63             1.0137618    1.130767015354    0.727158577316

     19   L      64             0.2700058    1.000000000000    1.000000000000

     20   D      65             0.8000000    1.000000000000

 O         

     21   S      66          5484.6716600    0.001831074430
     21   S      67           825.2349460    0.013950172200
     21   S      68           188.0469580    0.068445078098
     21   S      69            52.9645000    0.232714335992
     21   S      70            16.8975704    0.470192897984
     21   S      71             5.7996353    0.358520852987

     22   L      72            15.5396162   -0.110777549525    0.070874268231
     22   L      73             3.5999336   -0.148026262701    0.339752839147
     22   L      74             1.0137618    1.130767015354    0.727158577316

     23   L      75             0.2700058    1.000000000000    1.000000000000

     24   D      76             0.8000000    1.000000000000

 O         

     25   S      77          5484.6716600    0.001831074430
     25   S      78           825.2349460    0.013950172200
     25   S      79           188.0469580    0.068445078098
     25   S      80            52.9645000    0.232714335992
     25   S      81            16.8975704    0.470192897984
     25   S      82             5.7996353    0.358520852987

     26   L      83            15.5396162   -0.110777549525    0.070874268231
     26   L      84             3.5999336   -0.148026262701    0.339752839147
     26   L      85             1.0137618    1.130767015354    0.727158577316

     27   L      86             0.2700058    1.000000000000    1.000000000000

     28   D      87             0.8000000    1.000000000000

 O         

     29   S      88          5484.6716600    0.001831074430
     29   S      89           825.2349460    0.013950172200
     29   S      90           188.0469580    0.068445078098
     29   S      91            52.9645000    0.232714335992
     29   S      92            16.8975704    0.470192897984
     29   S      93             5.7996353    0.358520852987

     30   L      94            15.5396162   -0.110777549525    0.070874268231
     30   L      95             3.5999336   -0.148026262701    0.339752839147
     30   L      96             1.0137618    1.130767015354    0.727158577316

     31   L      97             0.2700058    1.000000000000    1.000000000000

     32   D      98             0.8000000    1.000000000000

 TI        

     33   S      99         43152.9500000    0.001791871976
     33   S     100          6479.5710000    0.013723919819
     33   S     101          1475.6750000    0.067628299108
     33   S     102           415.6991000    0.233764196917
     33   S     103           133.0006000    0.481069593655
     33   S     104            45.2722200    0.346227995434

     34   L     105           874.6826000    0.002431008053    0.004017679296
     34   L     106           207.9785000    0.032330270707    0.031139662298
     34   L     107            66.8791800    0.124252002716    0.134907709955
     34   L     108            24.8734700   -0.039039050853    0.343167225322
     34   L     109             9.9684410   -0.617178913492    0.462576034134
     34   L     110             4.0638260   -0.447309709779    0.215460315899

     35   L     111            33.6436300   -0.002940357957   -0.006311620001
     35   L     112            10.8756500    0.071631028943   -0.026976380003
     35   L     113             4.6282250    0.252891496268    0.053168470005
     35   L     114             1.9501260   -0.296640095622    0.384554900038
     35   L     115             0.8094520   -0.743221489032    0.512766200050
     35   L     116             0.3204740   -0.185351997265    0.181113500018

     36   L     117             1.2241480    0.063514607166   -0.211207009897
     36   L     118             0.4842630    0.315140187469    0.077719983642
     36   L     119             0.0840960   -1.162594215945    0.989821446382

     37   L     120             0.0320360    1.000000000000    1.000000000000

     38   D     121            13.6908500    0.085894178803
     38   D     122             3.5131540    0.378467094726
     38   D     123             1.0404340    0.716123890021

     39   D     124             0.2869620    1.000000000000

     40   F     125             0.8000000    1.000000000000

 O         

     41   S     126          5484.6716600    0.001831074430
     41   S     127           825.2349460    0.013950172200
     41   S     128           188.0469580    0.068445078098
     41   S     129            52.9645000    0.232714335992
     41   S     130            16.8975704    0.470192897984
     41   S     131             5.7996353    0.358520852987

     42   L     132            15.5396162   -0.110777549525    0.070874268231
     42   L     133             3.5999336   -0.148026262701    0.339752839147
     42   L     134             1.0137618    1.130767015354    0.727158577316

     43   L     135             0.2700058    1.000000000000    1.000000000000

     44   D     136             0.8000000    1.000000000000

 TI        

     45   S     137         43152.9500000    0.001791871976
     45   S     138          6479.5710000    0.013723919819
     45   S     139          1475.6750000    0.067628299108
     45   S     140           415.6991000    0.233764196917
     45   S     141           133.0006000    0.481069593655
     45   S     142            45.2722200    0.346227995434

     46   L     143           874.6826000    0.002431008053    0.004017679296
     46   L     144           207.9785000    0.032330270707    0.031139662298
     46   L     145            66.8791800    0.124252002716    0.134907709955
     46   L     146            24.8734700   -0.039039050853    0.343167225322
     46   L     147             9.9684410   -0.617178913492    0.462576034134
     46   L     148             4.0638260   -0.447309709779    0.215460315899

     47   L     149            33.6436300   -0.002940357957   -0.006311620001
     47   L     150            10.8756500    0.071631028943   -0.026976380003
     47   L     151             4.6282250    0.252891496268    0.053168470005
     47   L     152             1.9501260   -0.296640095622    0.384554900038
     47   L     153             0.8094520   -0.743221489032    0.512766200050
     47   L     154             0.3204740   -0.185351997265    0.181113500018

     48   L     155             1.2241480    0.063514607166   -0.211207009897
     48   L     156             0.4842630    0.315140187469    0.077719983642
     48   L     157             0.0840960   -1.162594215945    0.989821446382

     49   L     158             0.0320360    1.000000000000    1.000000000000

     50   D     159            13.6908500    0.085894178803
     50   D     160             3.5131540    0.378467094726
     50   D     161             1.0404340    0.716123890021

     51   D     162             0.2869620    1.000000000000

     52   F     163             0.8000000    1.000000000000

 O         

     53   S     164          5484.6716600    0.001831074430
     53   S     165           825.2349460    0.013950172200
     53   S     166           188.0469580    0.068445078098
     53   S     167            52.9645000    0.232714335992
     53   S     168            16.8975704    0.470192897984
     53   S     169             5.7996353    0.358520852987

     54   L     170            15.5396162   -0.110777549525    0.070874268231
     54   L     171             3.5999336   -0.148026262701    0.339752839147
     54   L     172             1.0137618    1.130767015354    0.727158577316

     55   L     173             0.2700058    1.000000000000    1.000000000000

     56   D     174             0.8000000    1.000000000000

 O         

     57   S     175          5484.6716600    0.001831074430
     57   S     176           825.2349460    0.013950172200
     57   S     177           188.0469580    0.068445078098
     57   S     178            52.9645000    0.232714335992
     57   S     179            16.8975704    0.470192897984
     57   S     180             5.7996353    0.358520852987

     58   L     181            15.5396162   -0.110777549525    0.070874268231
     58   L     182             3.5999336   -0.148026262701    0.339752839147
     58   L     183             1.0137618    1.130767015354    0.727158577316

     59   L     184             0.2700058    1.000000000000    1.000000000000

     60   D     185             0.8000000    1.000000000000

 O         

     61   S     186          5484.6716600    0.001831074430
     61   S     187           825.2349460    0.013950172200
     61   S     188           188.0469580    0.068445078098
     61   S     189            52.9645000    0.232714335992
     61   S     190            16.8975704    0.470192897984
     61   S     191             5.7996353    0.358520852987

     62   L     192            15.5396162   -0.110777549525    0.070874268231
     62   L     193             3.5999336   -0.148026262701    0.339752839147
     62   L     194             1.0137618    1.130767015354    0.727158577316

     63   L     195             0.2700058    1.000000000000    1.000000000000

     64   D     196             0.8000000    1.000000000000

 TOTAL NUMBER OF BASIS SET SHELLS             =   64
 NUMBER OF CARTESIAN GAUSSIAN BASIS FUNCTIONS =  276
 NUMBER OF ELECTRONS                          =  152
 CHARGE OF MOLECULE                           =    0
 SPIN MULTIPLICITY                            =    1
 NUMBER OF OCCUPIED ORBITALS (ALPHA)          =   76
 NUMBER OF OCCUPIED ORBITALS (BETA )          =   76
 TOTAL NUMBER OF ATOMS                        =   12
 THE NUCLEAR REPULSION ENERGY IS     1982.1776109960
 THE NUCLEAR REPULSION ENERGY IS     1982.1776109960

     STANDARD GRID ONE (SG-1) PRUNED GRID OPTIONS
     -------------------------------------------
     DFTTYP=BHHLYP  
     GRID HAS 50 RADIAL POINTS AND AT MOST
      194 ANGULAR POINTS, BEFORE PRUNING
     SWOFF =    5.00E-03 (PURE SCF -> DFT)
     COARSE GRID SWITCHING IS NOT AVAILABLE
     THRESH=    0.00E+00 GTHRE=    1.00E+00

 GRIMME'S EMPIRICAL DISPERSION CORRECTION= F

     $CONTRL OPTIONS
     ---------------
 SCFTYP=REKS         RUNTYP=ENERGY       EXETYP=RUN     
 MPLEVL=       0     CITYP =NONE         CCTYP =NONE         VBTYP =NONE    
 DFTTYP=BHHLYP       TDDFT =NONE    
 MULT  =       1     ICHARG=       0     NZVAR =       0     COORD =UNIQUE  
 PP    =NONE         RELWFN=NONE         LOCAL =NONE         NUMGRD=       F
 ISPHER=      -1     NOSYM =       0     MAXIT =   10000     UNITS =ANGS    
 PLTORB=       F     MOLPLT=       F     AIMPAC=       F     FRIEND=        
 NPRINT=       7     IREST =       0     GEOM  =INPUT   
 NORMF =       0     NORMP =       0     ITOL  =      20     ICUT  =       9
 INTTYP=BEST         GRDTYP=BEST         QMTTOL= 1.0E-06

     $SYSTEM OPTIONS
     ---------------
  REPLICATED MEMORY=   700000000 WORDS (ON EVERY NODE).
 DISTRIBUTED MEMDDI=           0 MILLION WORDS IN AGGREGATE,
 MEMDDI DISTRIBUTED OVER  12 PROCESSORS IS           0 WORDS/PROCESSOR.
 TOTAL MEMORY REQUESTED ON EACH PROCESSOR=   700000000 WORDS.
 TIMLIM=   999999100.00 MINUTES, OR  694443.8 DAYS.
 PARALL= T  BALTYP=  DLB     KDIAG=    0  COREFL= F
 MXSEQ2=     300 MXSEQ3=     150  mem10=         0

          ----------------
          PROPERTIES INPUT
          ----------------

     MOMENTS            FIELD           POTENTIAL          DENSITY
 IEMOM =       1   IEFLD =       0   IEPOT =       0   IEDEN =       0
 WHERE =COMASS     WHERE =NUCLEI     WHERE =NUCLEI     WHERE =NUCLEI  
 OUTPUT=BOTH       OUTPUT=BOTH       OUTPUT=BOTH       OUTPUT=BOTH    
 IEMINT=       0   IEFINT=       0                     IEDINT=       0
                                                       MORB  =       0
          EXTRAPOLATION IN EFFECT
          DIIS IN EFFECT
 ORBITAL PRINTING OPTION: NPREO=     1   276     2     1

 =====> REKS control string found <=====
 $REKS | REXTYPE=0 | REXTARGET=0 |WPPS=0.95 |REXSHIFT=0.4 |REXDIIS=NO |$END

 ======> set rexType to   0
 ======> set rexTarget to   0
 ======> set WPPS to    0.95000000
 ======> set REXSHIFT to    0.40000000
 ======> set REXDIIS to F

 =====> End of REKS control string <=====

     -------------------------------
     INTEGRAL TRANSFORMATION OPTIONS
     -------------------------------
     NWORD  =            0
     CUTOFF = 1.0E-09     MPTRAN =       0
     DIRTRF =       F     AOINTS =DUP     

          ----------------------
          INTEGRAL INPUT OPTIONS
          ----------------------
 NOPK  =       1 NORDER=       0 SCHWRZ=       T

     ------------------------------------------
     THE POINT GROUP IS C1 , NAXIS= 0, ORDER= 1
     ------------------------------------------

     DIMENSIONS OF THE SYMMETRY SUBSPACES ARE
 A   =  276

 ..... DONE SETTING UP THE RUN .....
 CPU     0: STEP CPU TIME=     0.38 TOTAL CPU TIME=          0.4 (      0.0 MIN)
 TOTAL WALL CLOCK TIME=          0.4 SECONDS, CPU UTILIZATION IS    92.68%

          ********************
          1 ELECTRON INTEGRALS
          ********************
 ...... END OF ONE-ELECTRON INTEGRALS ......
 CPU     0: STEP CPU TIME=     0.02 TOTAL CPU TIME=          0.4 (      0.0 MIN)
 TOTAL WALL CLOCK TIME=          0.4 SECONDS, CPU UTILIZATION IS    93.02%

          -------------
          GUESS OPTIONS
          -------------
          GUESS =MOREAD            NORB  =     106          NORDER=       0
          MIX   =       F          PRTMO =       F          PUNMO =       F
          TOLZ  = 1.0E-08          TOLE  = 1.0E-05
          SYMDEN=       F          PURIFY=       F

 INITIAL GUESS ORBITALS GENERATED BY MOREAD   ROUTINE.

 SYMMETRIES FOR INITIAL GUESS ORBITALS FOLLOW.   BOTH SET(S).
    76 ORBITALS ARE OCCUPIED (   44 CORE ORBITALS).
     1=A        2=A        3=A        4=A        5=A        6=A        7=A   
     8=A        9=A       10=A       11=A       12=A       13=A       14=A   
    15=A       16=A       17=A       18=A       19=A       20=A       21=A   
    22=A       23=A       24=A       25=A       26=A       27=A       28=A   
    29=A       30=A       31=A       32=A       33=A       34=A       35=A   
    36=A       37=A       38=A       39=A       40=A       41=A       42=A   
    43=A       44=A       45=A       46=A       47=A       48=A       49=A   
    50=A       51=A       52=A       53=A       54=A       55=A       56=A   
    57=A       58=A       59=A       60=A       61=A       62=A       63=A   
    64=A       65=A       66=A       67=A       68=A       69=A       70=A   
    71=A       72=A       73=A       74=A       75=A       76=A       77=A   
    78=A       79=A       80=A       81=A       82=A       83=A       84=A   
    85=A       86=A       87=A       88=A       89=A       90=A       91=A   
    92=A       93=A       94=A       95=A       96=A       97=A       98=A   
    99=A      100=A      101=A      102=A      103=A      104=A      105=A   
   106=A      107=A      108=A      109=A      110=A      111=A      112=A   
   113=A      114=A      115=A      116=A      117=A      118=A      119=A   
   120=A      121=A      122=A      123=A      124=A      125=A      126=A   
   127=A      128=A      129=A      130=A      131=A      132=A      133=A   
   134=A      135=A      136=A      137=A      138=A      139=A      140=A   
   141=A      142=A      143=A      144=A      145=A      146=A      147=A   
   148=A      149=A      150=A      151=A      152=A      153=A      154=A   
   155=A      156=A      157=A      158=A      159=A      160=A      161=A   
   162=A      163=A      164=A      165=A      166=A      167=A      168=A   
   169=A      170=A      171=A      172=A      173=A      174=A      175=A   
   176=A      177=A      178=A      179=A      180=A      181=A      182=A   
   183=A      184=A      185=A      186=A      187=A      188=A      189=A   
   190=A      191=A      192=A      193=A      194=A      195=A      196=A   
   197=A      198=A      199=A      200=A      201=A      202=A      203=A   
   204=A      205=A      206=A      207=A      208=A      209=A      210=A   
   211=A      212=A      213=A      214=A      215=A      216=A      217=A   
   218=A      219=A      220=A      221=A      222=A      223=A      224=A   
   225=A      226=A      227=A      228=A      229=A      230=A      231=A   
   232=A      233=A      234=A      235=A      236=A      237=A      238=A   
   239=A      240=A      241=A      242=A      243=A      244=A      245=A   
   246=A      247=A      248=A      249=A      250=A      251=A      252=A   
   253=A      254=A      255=A      256=A      257=A      258=A      259=A   
   260=A      261=A      262=A      263=A      264=A      265=A      266=A   
   267=A      268=A      269=A      270=A      271=A      272=A      273=A   
   274=A      275=A      276=A   
 ...... END OF INITIAL ORBITAL SELECTION ......
 CPU     0: STEP CPU TIME=     0.06 TOTAL CPU TIME=          0.5 (      0.0 MIN)
 TOTAL WALL CLOCK TIME=          0.5 SECONDS, CPU UTILIZATION IS    86.79%

                    ----------------------
                    AO INTEGRAL TECHNOLOGY
                    ----------------------
     S,P,L SHELL ROTATED AXIS INTEGRALS, REPROGRAMMED BY
        KAZUYA ISHIMURA (IMS) AND JOSE SIERRA (SYNSTAR).
     S,P,D,L SHELL ROTATED AXIS INTEGRALS PROGRAMMED BY
        KAZUYA ISHIMURA (INSTITUTE FOR MOLECULAR SCIENCE).
     S,P,D,F,G SHELL TO TOTAL QUARTET ANGULAR MOMENTUM SUM 5,
        ERIC PROGRAM BY GRAHAM FLETCHER (ELORET AND NASA ADVANCED
        SUPERCOMPUTING DIVISION, AMES RESEARCH CENTER).
     S,P,D,F,G,L SHELL GENERAL RYS QUADRATURE PROGRAMMED BY
        MICHEL DUPUIS (PACIFIC NORTHWEST NATIONAL LABORATORY).

          --------------------
          2 ELECTRON INTEGRALS
          --------------------

 THE -PK- OPTION IS OFF, THE INTEGRALS ARE NOT IN SUPERMATRIX FORM.
 STORING   15000 INTEGRALS/RECORD ON DISK, USING 16 BYTES/INTEGRAL.
 TWO ELECTRON INTEGRAL EVALUATION REQUIRES  101180 WORDS OF MEMORY.
 SCHWARZ INEQUALITY OVERHEAD:     36100 INTEGRALS, T=        0.00
 II,JST,KST,LST =  1  1  1  1 NREC =         1 INTLOC =    1
 II,JST,KST,LST =  2  1  1  1 NREC =         1 INTLOC =    1
 II,JST,KST,LST =  3  1  1  1 NREC =         1 INTLOC =    1
 II,JST,KST,LST =  4  1  1  1 NREC =         1 INTLOC =    1
 II,JST,KST,LST =  5  1  1  1 NREC =         1 INTLOC =    1
 II,JST,KST,LST =  6  1  1  1 NREC =         1 INTLOC =    1
 II,JST,KST,LST =  7  1  1  1 NREC =         1 INTLOC =    1
 II,JST,KST,LST =  8  1  1  1 NREC =         1 INTLOC =    1
 II,JST,KST,LST =  9  1  1  1 NREC =         1 INTLOC = 2110
 II,JST,KST,LST = 10  1  1  1 NREC =         1 INTLOC = 2110
 II,JST,KST,LST = 11  1  1  1 NREC =         1 INTLOC = 5571
 II,JST,KST,LST = 12  1  1  1 NREC =         2 INTLOC = 7704
 II,JST,KST,LST = 13  1  1  1 NREC =         2 INTLOC = 7704
 II,JST,KST,LST = 14  1  1  1 NREC =         2 INTLOC = 7704
 II,JST,KST,LST = 15  1  1  1 NREC =         6 INTLOC =  762
 II,JST,KST,LST = 16  1  1  1 NREC =         6 INTLOC =  762
 II,JST,KST,LST = 17  1  1  1 NREC =         9 INTLOC =11955
 II,JST,KST,LST = 18  1  1  1 NREC =        10 INTLOC = 1603
 II,JST,KST,LST = 19  1  1  1 NREC =        14 INTLOC = 7594
 II,JST,KST,LST = 20  1  1  1 NREC =        16 INTLOC = 8638
 II,JST,KST,LST = 21  1  1  1 NREC =        21 INTLOC = 4578
 II,JST,KST,LST = 22  1  1  1 NREC =        22 INTLOC =13682
 II,JST,KST,LST = 23  1  1  1 NREC =        28 INTLOC = 6697
 II,JST,KST,LST = 24  1  1  1 NREC =        32 INTLOC = 4087
 II,JST,KST,LST = 25  1  1  1 NREC =        42 INTLOC = 9179
 II,JST,KST,LST = 26  1  1  1 NREC =        44 INTLOC =14889
 II,JST,KST,LST = 27  1  1  1 NREC =        44 INTLOC =14889
 II,JST,KST,LST = 28  1  1  1 NREC =        56 INTLOC = 3737
 II,JST,KST,LST = 29  1  1  1 NREC =        78 INTLOC = 9093
 II,JST,KST,LST = 30  1  1  1 NREC =        78 INTLOC = 9093
 II,JST,KST,LST = 31  1  1  1 NREC =        85 INTLOC = 6852
 II,JST,KST,LST = 32  1  1  1 NREC =       101 INTLOC = 9465
 II,JST,KST,LST = 33  1  1  1 NREC =       115 INTLOC = 4450
 II,JST,KST,LST = 34  1  1  1 NREC =       120 INTLOC = 6427
 II,JST,KST,LST = 35  1  1  1 NREC =       136 INTLOC =10820
 II,JST,KST,LST = 36  1  1  1 NREC =       154 INTLOC =11211
 II,JST,KST,LST = 37  1  1  1 NREC =       209 INTLOC = 3479
 II,JST,KST,LST = 38  1  1  1 NREC =       209 INTLOC = 3479
 II,JST,KST,LST = 39  1  1  1 NREC =       234 INTLOC = 2973
 II,JST,KST,LST = 40  1  1  1 NREC =       309 INTLOC =12093
 II,JST,KST,LST = 41  1  1  1 NREC =       395 INTLOC = 7392
 II,JST,KST,LST = 42  1  1  1 NREC =       395 INTLOC = 7392
 II,JST,KST,LST = 43  1  1  1 NREC =       444 INTLOC =10615
 II,JST,KST,LST = 44  1  1  1 NREC =       487 INTLOC = 5876
 II,JST,KST,LST = 45  1  1  1 NREC =       558 INTLOC = 2927
 II,JST,KST,LST = 46  1  1  1 NREC =       558 INTLOC = 2927
 II,JST,KST,LST = 47  1  1  1 NREC =       612 INTLOC = 8162
 II,JST,KST,LST = 48  1  1  1 NREC =       645 INTLOC = 9766
 II,JST,KST,LST = 49  1  1  1 NREC =       725 INTLOC =12350
 II,JST,KST,LST = 50  1  1  1 NREC =       837 INTLOC = 6980
 II,JST,KST,LST = 51  1  1  1 NREC =       949 INTLOC = 6613
 II,JST,KST,LST = 52  1  1  1 NREC =      1071 INTLOC =10653
 II,JST,KST,LST = 53  1  1  1 NREC =      1144 INTLOC = 7058
 II,JST,KST,LST = 54  1  1  1 NREC =      1181 INTLOC =  704
 II,JST,KST,LST = 55  1  1  1 NREC =      1275 INTLOC =13259
 II,JST,KST,LST = 56  1  1  1 NREC =      1450 INTLOC =13651
 II,JST,KST,LST = 57  1  1  1 NREC =      1580 INTLOC =10787
 II,JST,KST,LST = 58  1  1  1 NREC =      1580 INTLOC =10787
 II,JST,KST,LST = 59  1  1  1 NREC =      1696 INTLOC = 1646
 II,JST,KST,LST = 60  1  1  1 NREC =      1821 INTLOC =13106
 II,JST,KST,LST = 61  1  1  1 NREC =      2026 INTLOC = 4307
 II,JST,KST,LST = 62  1  1  1 NREC =      2033 INTLOC = 9616
 II,JST,KST,LST = 63  1  1  1 NREC =      2156 INTLOC =10743
 II,JST,KST,LST = 64  1  1  1 NREC =      2280 INTLOC = 4381
 SCHWARZ INEQUALITY TEST SKIPPED      948815 INTEGRAL BLOCKS.
 TOTAL NUMBER OF NONZERO TWO-ELECTRON INTEGRALS =           419955975
      28006 INTEGRAL RECORDS WERE STORED ON DISK FILE  8.
  ...... END OF TWO-ELECTRON INTEGRALS .....
 CPU     0: STEP CPU TIME=     3.11 TOTAL CPU TIME=          3.6 (      0.1 MIN)
 TOTAL WALL CLOCK TIME=          3.8 SECONDS, CPU UTILIZATION IS    93.95%

 ================================================================================

          Performing a Ó¡+¾SA-REKS(2,2) calculation for the averaged state

          Weights: WPPS =    0.950000, WOSS =    0.050000

          Applying 0.400 orbital eigenvalue shift, not using DIIS

 ================================================================================

          -------------------
          SA-REKS(2,2)-BHHLYP
          -------------------

     NUCLEAR ENERGY =      1982.1776109960
     MAXIT =***     NPUNCH=  2     MULT=  1
     EXTRAP=F  DAMP=F  SHIFT=F  RSTRCT=F  DIIS=F  SOSCF=F
         DENSITY MATRIX CONVERGENCE THRESHOLD=  1.00E-06
            FOCK MATRIX CONVERGENCE THRESHOLD=  1.00E-06
     COARSE -> FINE DFT GRID SWITCH THRESHOLD=  3.00E-04 (SWITCH IN $DFT)
                   HF -> DFT SWITCH THRESHOLD=  0.00E+00 (SWOFF IN $DFT)
     MEMORY REQUIRED FOR REKS ITERS=   2569660 WORDS.

     EXCHANGE FUNCTIONAL   =B88&HFX   
     CORRELATION FUNCTIONAL=LYP88     
     DFT THRESHOLD         =.859E-08
 FOR AN EULER-MACLAURIN QUADRATURE USING  50 RADIAL POINTS:
 SMALLEST GAUSSIAN PRIMITIVE EXPONENT=        0.0320360000 OF TYPE -P-
 ON ATOM NUMBER   1 HAS RADIAL NORMALIZATION=  1.000000
  LARGEST GAUSSIAN PRIMITIVE EXPONENT=    43152.9500000000 OF TYPE -S-
 ON ATOM NUMBER   1 HAS RADIAL NORMALIZATION=  0.998705

          **************************************************
          *                                                *
          * WARNING: QUESTIONABLE SELECTION OF RADIAL GRID *
          *                                                *
          **************************************************

 THIS RUN HAS REQUESTED NRAD=  50 IN $DFT OR $TDDFT
 ATOM=    1 HAS LARGE EXPONENT=         43152.949999999997090
 RECOMMEND NRAD ABOVE  50 FOR ZETA'S ABOVE 1E+4
 RECOMMEND NRAD ABOVE  75 FOR ZETA'S ABOVE 1E+5
 RECOMMEND NRAD ABOVE 125 FOR ZETA'S ABOVE 1E+6
 ====================================================================================================================

 ITER EX     NR/2           TOTAL ENERGY    OFFDIAG FOCK      E CHANGE    DENSITY CHANGE  DIIS ERROR     VIR. SHIFT

 ====================================================================================================================
   1  0   1.000000000    -3999.6559091122   0.040653553 -3999.6559091122   0.033452591   0.000000000     0.400000000
   2  1   1.000000000    -3999.6574424553   0.040530324    -0.0015333430   0.035963414   0.000000000     0.400000000
   3  2   1.000000000    -3999.6583644282   0.032588358    -0.0009219729   0.032001338   0.000000000     0.400000000
   4  3   1.000000000    -3999.6589093566   0.019738831    -0.0005449284   0.022436185   0.000000000     0.400000000
   5  4   1.000000000    -3999.6591941418   0.015156522    -0.0002847852   0.014869247   0.000000000     0.400000000
   6  5   1.000000000    -3999.6593480812   0.009629267    -0.0001539394   0.009700943   0.000000000     0.400000000
   7  6   1.000000000    -3999.6594412301   0.008270486    -0.0000931489   0.006592064   0.000000000     0.400000000
   8  7   1.000000000    -3999.6595035919   0.007255800    -0.0000623619   0.004636362   0.000000000     0.400000000
   9  8   1.000000000    -3999.6595482722   0.006470723    -0.0000446803   0.003395757   0.000000000     0.400000000
  10  9   1.000000000    -3999.6595817728   0.005847587    -0.0000335006   0.002572480   0.000000000     0.400000000
  11 10   1.000000000    -3999.6596077784   0.005346027    -0.0000260056   0.002013342   0.000000000     0.400000000
  12 11   1.000000000    -3999.6596285814   0.004935768    -0.0000208029   0.001867239   0.000000000     0.400000000
  13 12   1.000000000    -3999.6596456857   0.004595970    -0.0000171044   0.001814272   0.000000000     0.400000000
  14 13   1.000000000    -3999.6596601071   0.004310813    -0.0000144214   0.001753513   0.000000000     0.400000000
  15 14   1.000000000    -3999.6596725428   0.004068368    -0.0000124356   0.001689302   0.000000000     0.400000000
  16 15   1.000000000    -3999.6596834771   0.003859387    -0.0000109343   0.001624425   0.000000000     0.400000000
  17 16   1.000000000    -3999.6596932508   0.003676724    -0.0000097737   0.001560606   0.000000000     0.400000000
  18 17   1.000000000    -3999.6597021065   0.003514835    -0.0000088557   0.001498802   0.000000000     0.400000000
  19 18   1.000000000    -3999.6597102195   0.003369440    -0.0000081131   0.001439511   0.000000000     0.400000000
  20 19   1.000000000    -3999.6597177190   0.003237242    -0.0000074995   0.001382978   0.000000000     0.400000000
  21 20   1.000000000    -3999.6597247019   0.003115707    -0.0000069828   0.001329201   0.000000000     0.400000000
  22 21   1.000000000    -3999.6597312424   0.003002899    -0.0000065406   0.001278153   0.000000000     0.400000000
  23 22   1.000000000    -3999.6597373991   0.002897334    -0.0000061566   0.001229625   0.000000000     0.400000000
  24 23   1.000000000    -3999.6597432188   0.002797878    -0.0000058197   0.001183467   0.000000000     0.400000000
  25 24   1.000000000    -3999.6597487403   0.002703665    -0.0000055215   0.001139486   0.000000000     0.400000000
  26 25   1.000000000    -3999.6597539963   0.002614029    -0.0000052560   0.001097499   0.000000000     0.400000000
  27 26   1.000000000    -3999.6597590147   0.002528454    -0.0000050185   0.001057328   0.000000000     0.400000000
  28 27   1.000000000    -3999.6597638203   0.002446541    -0.0000048056   0.001018826   0.000000000     0.400000000
  29 28   1.000000000    -3999.6597684349   0.002367971    -0.0000046146   0.000981853   0.000000000     0.400000000
  30 29   1.000000000    -3999.6597728782   0.002292489    -0.0000044432   0.000946288   0.000000000     0.400000000
  31 30   1.000000000    -3999.6597771679   0.002219887    -0.0000042898   0.000912042   0.000000000     0.400000000
  32 31   1.000000000    -3999.6597813205   0.002149984    -0.0000041526   0.000878948   0.000000000     0.400000000
  33 32   1.000000000    -3999.6597853509   0.002082627    -0.0000040304   0.000847053   0.000000000     0.400000000
  34 33   1.000000000    -3999.6597892728   0.002017675    -0.0000039219   0.000816201   0.000000000     0.400000000
  35 34   1.000000000    -3999.6597930988   0.001954998    -0.0000038261   0.000786411   0.000000000     0.400000000
  36 35   1.000000000    -3999.6597968406   0.001894472    -0.0000037418   0.000757559   0.000000000     0.400000000
  37 36   1.000000000    -3999.6598005086   0.001835977    -0.0000036680   0.000747688   0.000000000     0.400000000
  38 37   1.000000000    -3999.6598041124   0.001779394    -0.0000036038   0.000761293   0.000000000     0.400000000
  39 38   1.000000000    -3999.6598076606   0.001767972    -0.0000035482   0.000774214   0.000000000     0.400000000
  40 39   1.000000000    -3999.6598111608   0.001795376    -0.0000035002   0.000786343   0.000000000     0.400000000
  41 40   1.000000000    -3999.6598146198   0.001821827    -0.0000034589   0.000797576   0.000000000     0.400000000
  42 41   1.000000000    -3999.6598180432   0.001846994    -0.0000034234   0.000807816   0.000000000     0.400000000
  43 42   1.000000000    -3999.6598214360   0.001870564    -0.0000033928   0.000816968   0.000000000     0.400000000
  44 43   1.000000000    -3999.6598248021   0.001892253    -0.0000033661   0.000824950   0.000000000     0.400000000
  45 44   1.000000000    -3999.6598281447   0.001911797    -0.0000033426   0.000831684   0.000000000     0.400000000
  46 45   1.000000000    -3999.6598314660   0.001928964    -0.0000033213   0.000837106   0.000000000     0.400000000
  47 46   1.000000000    -3999.6598347677   0.001943550    -0.0000033016   0.000841162   0.000000000     0.400000000
  48 47   1.000000000    -3999.6598380503   0.001955382    -0.0000032827   0.000843811   0.000000000     0.400000000
  49 48   1.000000000    -3999.6598413142   0.001964319    -0.0000032638   0.000845025   0.000000000     0.400000000
  50 49   1.000000000    -3999.6598445587   0.001970254    -0.0000032445   0.000844789   0.000000000     0.400000000
  51 50   1.000000000    -3999.6598477827   0.001973114    -0.0000032241   0.000843103   0.000000000     0.400000000
  52 51   1.000000000    -3999.6598509848   0.001972861    -0.0000032021   0.000839981   0.000000000     0.400000000
  53 52   1.000000000    -3999.6598541631   0.001969486    -0.0000031782   0.000841869   0.000000000     0.400000000
  54 53   1.000000000    -3999.6598573151   0.001963019    -0.0000031520   0.000858941   0.000000000     0.400000000
  55 54   1.000000000    -3999.6598604384   0.001953513    -0.0000031233   0.000874441   0.000000000     0.400000000
  56 55   1.000000000    -3999.6598635304   0.001941056    -0.0000030919   0.000888298   0.000000000     0.400000000
  57 56   1.000000000    -3999.6598665881   0.001925758    -0.0000030577   0.000900459   0.000000000     0.400000000
  58 57   1.000000000    -3999.6598696087   0.001907754    -0.0000030206   0.000910890   0.000000000     0.400000000
  59 58   1.000000000    -3999.6598725894   0.001887196    -0.0000029807   0.000919576   0.000000000     0.400000000
  60 59   1.000000000    -3999.6598755274   0.001864254    -0.0000029380   0.000926520   0.000000000     0.400000000
  61 60   1.000000000    -3999.6598784201   0.001839112    -0.0000028927   0.000931739   0.000000000     0.400000000
  62 61   1.000000000    -3999.6598812650   0.001811960    -0.0000028449   0.000935269   0.000000000     0.400000000
  63 62   1.000000000    -3999.6598840597   0.001782997    -0.0000027947   0.000937160   0.000000000     0.400000000
  64 63   1.000000000    -3999.6598868022   0.001752422    -0.0000027425   0.000937472   0.000000000     0.400000000
  65 64   1.000000000    -3999.6598894907   0.001720435    -0.0000026884   0.000936277   0.000000000     0.400000000
  66 65   1.000000000    -3999.6598921234   0.001687233    -0.0000026327   0.000933658   0.000000000     0.400000000
  67 66   1.000000000    -3999.6598946991   0.001653008    -0.0000025757   0.000929700   0.000000000     0.400000000
  68 67   1.000000000    -3999.6598972167   0.001617943    -0.0000025175   0.000924498   0.000000000     0.400000000
  69 68   1.000000000    -3999.6598996751   0.001582213    -0.0000024585   0.000918146   0.000000000     0.400000000
  70 69   1.000000000    -3999.6599020739   0.001545983    -0.0000023988   0.000910742   0.000000000     0.400000000
  71 70   1.000000000    -3999.6599044126   0.001509408    -0.0000023387   0.000902383   0.000000000     0.400000000
  72 71   1.000000000    -3999.6599066910   0.001472628    -0.0000022784   0.000893167   0.000000000     0.400000000
  73 72   1.000000000    -3999.6599089090   0.001435774    -0.0000022181   0.000883185   0.000000000     0.400000000
  74 73   1.000000000    -3999.6599110670   0.001398965    -0.0000021580   0.000872531   0.000000000     0.400000000
  75 74   1.000000000    -3999.6599131653   0.001362305    -0.0000020982   0.000861289   0.000000000     0.400000000
  76 75   1.000000000    -3999.6599152043   0.001333773    -0.0000020390   0.000849544   0.000000000     0.400000000
  77 76   1.000000000    -3999.6599171847   0.001322712    -0.0000019804   0.000837371   0.000000000     0.400000000
  78 77   1.000000000    -3999.6599191074   0.001310831    -0.0000019227   0.000824845   0.000000000     0.400000000
  79 78   1.000000000    -3999.6599209731   0.001298199    -0.0000018657   0.000812031   0.000000000     0.400000000
  80 79   1.000000000    -3999.6599227829   0.001284887    -0.0000018098   0.000798992   0.000000000     0.400000000
  81 80   1.000000000    -3999.6599245379   0.001270963    -0.0000017549   0.000785785   0.000000000     0.400000000
  82 81   1.000000000    -3999.6599262391   0.001256491    -0.0000017012   0.000772460   0.000000000     0.400000000
  83 82   1.000000000    -3999.6599278877   0.001241533    -0.0000016486   0.000759065   0.000000000     0.400000000
  84 83   1.000000000    -3999.6599294851   0.001226151    -0.0000015973   0.000745643   0.000000000     0.400000000
  85 84   1.000000000    -3999.6599310323   0.001210401    -0.0000015473   0.000732229   0.000000000     0.400000000
  86 85   1.000000000    -3999.6599325309   0.001194336    -0.0000014985   0.000718858   0.000000000     0.400000000
  87 86   1.000000000    -3999.6599339819   0.001178009    -0.0000014511   0.000705560   0.000000000     0.400000000
  88 87   1.000000000    -3999.6599353869   0.001161466    -0.0000014050   0.000692360   0.000000000     0.400000000
  89 88   1.000000000    -3999.6599367471   0.001144753    -0.0000013602   0.000679281   0.000000000     0.400000000
  90 89   1.000000000    -3999.6599380639   0.001127912    -0.0000013168   0.000666343   0.000000000     0.400000000
  91 90   1.000000000    -3999.6599393385   0.001110982    -0.0000012746   0.000653562   0.000000000     0.400000000
  92 91   1.000000000    -3999.6599405723   0.001093999    -0.0000012338   0.000640953   0.000000000     0.400000000
  93 92   1.000000000    -3999.6599417667   0.001076996    -0.0000011943   0.000628529   0.000000000     0.400000000
  94 93   1.000000000    -3999.6599429228   0.001060004    -0.0000011561   0.000616298   0.000000000     0.400000000
  95 94   1.000000000    -3999.6599440420   0.001043051    -0.0000011192   0.000604270   0.000000000     0.400000000
  96 95   1.000000000    -3999.6599451255   0.001026163    -0.0000010835   0.000592452   0.000000000     0.400000000
  97 96   1.000000000    -3999.6599461745   0.001009364    -0.0000010490   0.000580847   0.000000000     0.400000000
  98 97   1.000000000    -3999.6599471902   0.000992673    -0.0000010157   0.000569461   0.000000000     0.400000000
  99 98   1.000000000    -3999.6599481738   0.000976111    -0.0000009836   0.000558296   0.000000000     0.400000000
 100 99   1.000000000    -3999.6599491264   0.000959694    -0.0000009526   0.000547353   0.000000000     0.400000000
 101100   1.000000000    -3999.6599500491   0.000943438    -0.0000009227   0.000536633   0.000000000     0.400000000
 102101   1.000000000    -3999.6599509430   0.000927356    -0.0000008939   0.000526138   0.000000000     0.400000000
 103102   1.000000000    -3999.6599518090   0.000911460    -0.0000008661   0.000515864   0.000000000     0.400000000
 104103   1.000000000    -3999.6599526484   0.000895761    -0.0000008393   0.000505813   0.000000000     0.400000000
 105104   1.000000000    -3999.6599534619   0.000880267    -0.0000008135   0.000495981   0.000000000     0.400000000
 106105   1.000000000    -3999.6599542506   0.000864987    -0.0000007887   0.000486367   0.000000000     0.400000000
 107106   1.000000000    -3999.6599550153   0.000849926    -0.0000007648   0.000476969   0.000000000     0.400000000
 108107   1.000000000    -3999.6599557571   0.000835091    -0.0000007417   0.000467782   0.000000000     0.400000000
 109108   1.000000000    -3999.6599564766   0.000820486    -0.0000007195   0.000458804   0.000000000     0.400000000
 110109   1.000000000    -3999.6599571748   0.000806115    -0.0000006982   0.000450033   0.000000000     0.400000000
 111110   1.000000000    -3999.6599578524   0.000791981    -0.0000006776   0.000441463   0.000000000     0.400000000
 112111   1.000000000    -3999.6599585102   0.000778084    -0.0000006578   0.000433092   0.000000000     0.400000000
 113112   1.000000000    -3999.6599591489   0.000764428    -0.0000006387   0.000424916   0.000000000     0.400000000
 114113   1.000000000    -3999.6599597694   0.000751013    -0.0000006204   0.000416930   0.000000000     0.400000000
 115114   1.000000000    -3999.6599603721   0.000737838    -0.0000006027   0.000409132   0.000000000     0.400000000
 116115   1.000000000    -3999.6599609578   0.000730251    -0.0000005858   0.000401516   0.000000000     0.400000000
 117116   1.000000000    -3999.6599615272   0.000726540    -0.0000005694   0.000394080   0.000000000     0.400000000
 118117   1.000000000    -3999.6599620808   0.000722811    -0.0000005536   0.000386818   0.000000000     0.400000000
 119118   1.000000000    -3999.6599626193   0.000719069    -0.0000005384   0.000379727   0.000000000     0.400000000
 120119   1.000000000    -3999.6599631431   0.000715316    -0.0000005239   0.000372803   0.000000000     0.400000000
 121120   1.000000000    -3999.6599636529   0.000711555    -0.0000005098   0.000366042   0.000000000     0.400000000
 122121   1.000000000    -3999.6599641491   0.000707791    -0.0000004962   0.000359440   0.000000000     0.400000000
 123122   1.000000000    -3999.6599646323   0.000704024    -0.0000004832   0.000352994   0.000000000     0.400000000
 124123   1.000000000    -3999.6599651029   0.000700258    -0.0000004706   0.000346698   0.000000000     0.400000000
 125124   1.000000000    -3999.6599655614   0.000696495    -0.0000004585   0.000340551   0.000000000     0.400000000
 126125   1.000000000    -3999.6599660082   0.000692737    -0.0000004468   0.000334547   0.000000000     0.400000000
 127126   1.000000000    -3999.6599664438   0.000688987    -0.0000004356   0.000328684   0.000000000     0.400000000
 128127   1.000000000    -3999.6599668685   0.000685246    -0.0000004247   0.000322957   0.000000000     0.400000000
 129128   1.000000000    -3999.6599672828   0.000681516    -0.0000004143   0.000317364   0.000000000     0.400000000
 130129   1.000000000    -3999.6599676871   0.000677799    -0.0000004042   0.000311901   0.000000000     0.400000000
 131130   1.000000000    -3999.6599680816   0.000674097    -0.0000003945   0.000306564   0.000000000     0.400000000
 132131   1.000000000    -3999.6599684667   0.000670410    -0.0000003851   0.000301351   0.000000000     0.400000000
 133132   1.000000000    -3999.6599688428   0.000666741    -0.0000003761   0.000296257   0.000000000     0.400000000
 134133   1.000000000    -3999.6599692102   0.000663091    -0.0000003674   0.000291281   0.000000000     0.400000000
 135134   1.000000000    -3999.6599695692   0.000659460    -0.0000003590   0.000286419   0.000000000     0.400000000
 136135   1.000000000    -3999.6599699201   0.000655851    -0.0000003509   0.000281668   0.000000000     0.400000000
 137136   1.000000000    -3999.6599702632   0.000652263    -0.0000003430   0.000277025   0.000000000     0.400000000
 138137   1.000000000    -3999.6599705986   0.000648699    -0.0000003355   0.000272487   0.000000000     0.400000000
 139138   1.000000000    -3999.6599709268   0.000645158    -0.0000003282   0.000268052   0.000000000     0.400000000
 140139   1.000000000    -3999.6599712479   0.000641642    -0.0000003211   0.000263717   0.000000000     0.400000000
 141140   1.000000000    -3999.6599715622   0.000638151    -0.0000003143   0.000259479   0.000000000     0.400000000
 142141   1.000000000    -3999.6599718699   0.000634687    -0.0000003077   0.000255336   0.000000000     0.400000000
 143142   1.000000000    -3999.6599721712   0.000631249    -0.0000003013   0.000251286   0.000000000     0.400000000
 144143   1.000000000    -3999.6599724664   0.000627838    -0.0000002952   0.000247325   0.000000000     0.400000000
 145144   1.000000000    -3999.6599727557   0.000624456    -0.0000002892   0.000243453   0.000000000     0.400000000
 146145   1.000000000    -3999.6599730391   0.000621101    -0.0000002835   0.000239665   0.000000000     0.400000000
 147146   1.000000000    -3999.6599733170   0.000617776    -0.0000002779   0.000235961   0.000000000     0.400000000
 148147   1.000000000    -3999.6599735895   0.000614479    -0.0000002725   0.000232338   0.000000000     0.400000000
 149148   1.000000000    -3999.6599738568   0.000611212    -0.0000002673   0.000228794   0.000000000     0.400000000
 150149   1.000000000    -3999.6599741191   0.000607975    -0.0000002622   0.000225327   0.000000000     0.400000000
 151150   1.000000000    -3999.6599743765   0.000604767    -0.0000002574   0.000221936   0.000000000     0.400000000
 152151   1.000000000    -3999.6599746291   0.000601590    -0.0000002526   0.000218617   0.000000000     0.400000000
 153152   1.000000000    -3999.6599748771   0.000598443    -0.0000002480   0.000215369   0.000000000     0.400000000
 154153   1.000000000    -3999.6599751207   0.000595327    -0.0000002436   0.000212192   0.000000000     0.400000000
 155154   1.000000000    -3999.6599753600   0.000592241    -0.0000002393   0.000209636   0.000000000     0.400000000
 156155   1.000000000    -3999.6599755952   0.000589186    -0.0000002351   0.000208471   0.000000000     0.400000000
 157156   1.000000000    -3999.6599758263   0.000586162    -0.0000002311   0.000207314   0.000000000     0.400000000
 158157   1.000000000    -3999.6599760534   0.000583169    -0.0000002272   0.000206164   0.000000000     0.400000000
 159158   1.000000000    -3999.6599762768   0.000580207    -0.0000002234   0.000205022   0.000000000     0.400000000
 160159   1.000000000    -3999.6599764964   0.000577276    -0.0000002197   0.000203888   0.000000000     0.400000000
 161160   1.000000000    -3999.6599767125   0.000574376    -0.0000002161   0.000202763   0.000000000     0.400000000
 162161   1.000000000    -3999.6599769251   0.000571507    -0.0000002126   0.000201646   0.000000000     0.400000000
 163162   1.000000000    -3999.6599771344   0.000568670    -0.0000002093   0.000200539   0.000000000     0.400000000
 164163   1.000000000    -3999.6599773404   0.000565862    -0.0000002060   0.000199440   0.000000000     0.400000000
 165164   1.000000000    -3999.6599775431   0.000563086    -0.0000002028   0.000198350   0.000000000     0.400000000
 166165   1.000000000    -3999.6599777428   0.000560340    -0.0000001997   0.000197270   0.000000000     0.400000000
 167166   1.000000000    -3999.6599779395   0.000557625    -0.0000001967   0.000196199   0.000000000     0.400000000
 168167   1.000000000    -3999.6599781333   0.000554941    -0.0000001938   0.000195138   0.000000000     0.400000000
 169168   1.000000000    -3999.6599783243   0.000552287    -0.0000001910   0.000194085   0.000000000     0.400000000
 170169   1.000000000    -3999.6599785125   0.000549663    -0.0000001882   0.000193043   0.000000000     0.400000000
 171170   1.000000000    -3999.6599786980   0.000547069    -0.0000001855   0.000192010   0.000000000     0.400000000
 172171   1.000000000    -3999.6599788809   0.000544506    -0.0000001829   0.000190987   0.000000000     0.400000000
 173172   1.000000000    -3999.6599790613   0.000541972    -0.0000001804   0.000189974   0.000000000     0.400000000
 174173   1.000000000    -3999.6599792392   0.000539467    -0.0000001779   0.000188970   0.000000000     0.400000000
 175174   1.000000000    -3999.6599794148   0.000536992    -0.0000001755   0.000187976   0.000000000     0.400000000
 176175   1.000000000    -3999.6599795880   0.000534547    -0.0000001732   0.000186992   0.000000000     0.400000000
 177176   1.000000000    -3999.6599797589   0.000532130    -0.0000001709   0.000186017   0.000000000     0.400000000
 178177   1.000000000    -3999.6599799276   0.000529743    -0.0000001687   0.000185053   0.000000000     0.400000000
 179178   1.000000000    -3999.6599800942   0.000527384    -0.0000001666   0.000184098   0.000000000     0.400000000
 180179   1.000000000    -3999.6599802587   0.000525053    -0.0000001645   0.000183153   0.000000000     0.400000000
 181180   1.000000000    -3999.6599804211   0.000522751    -0.0000001624   0.000182217   0.000000000     0.400000000
 182181   1.000000000    -3999.6599805816   0.000520477    -0.0000001605   0.000181291   0.000000000     0.400000000
 183182   1.000000000    -3999.6599807401   0.000518230    -0.0000001585   0.000180375   0.000000000     0.400000000
 184183   1.000000000    -3999.6599808967   0.000516011    -0.0000001566   0.000179469   0.000000000     0.400000000
 185184   1.000000000    -3999.6599810516   0.000513820    -0.0000001548   0.000178572   0.000000000     0.400000000
 186185   1.000000000    -3999.6599812046   0.000511656    -0.0000001530   0.000177684   0.000000000     0.400000000
 187186   1.000000000    -3999.6599813558   0.000509518    -0.0000001512   0.000176806   0.000000000     0.400000000
 188187   1.000000000    -3999.6599815054   0.000507407    -0.0000001496   0.000175937   0.000000000     0.400000000
 189188   1.000000000    -3999.6599816533   0.000505323    -0.0000001479   0.000175078   0.000000000     0.400000000
 190189   1.000000000    -3999.6599817996   0.000503265    -0.0000001463   0.000174228   0.000000000     0.400000000
 191190   1.000000000    -3999.6599819443   0.000501233    -0.0000001447   0.000173387   0.000000000     0.400000000
 192191   1.000000000    -3999.6599820875   0.000499226    -0.0000001432   0.000172555   0.000000000     0.400000000
 193192   1.000000000    -3999.6599822291   0.000497245    -0.0000001417   0.000171732   0.000000000     0.400000000
 194193   1.000000000    -3999.6599823694   0.000495290    -0.0000001402   0.000170918   0.000000000     0.400000000
 195194   1.000000000    -3999.6599825081   0.000493359    -0.0000001388   0.000170113   0.000000000     0.400000000
 196195   1.000000000    -3999.6599826455   0.000491453    -0.0000001374   0.000169317   0.000000000     0.400000000
 197196   1.000000000    -3999.6599827816   0.000489571    -0.0000001360   0.000168530   0.000000000     0.400000000
 198197   1.000000000    -3999.6599829163   0.000487714    -0.0000001347   0.000167751   0.000000000     0.400000000
 199198   1.000000000    -3999.6599830496   0.000485881    -0.0000001334   0.000166981   0.000000000     0.400000000
 200199   1.000000000    -3999.6599831818   0.000484071    -0.0000001321   0.000166219   0.000000000     0.400000000
 201200   1.000000000    -3999.6599833127   0.000482285    -0.0000001309   0.000165466   0.000000000     0.400000000
 202201   1.000000000    -3999.6599834424   0.000480522    -0.0000001297   0.000164721   0.000000000     0.400000000
 203202   1.000000000    -3999.6599835709   0.000478783    -0.0000001285   0.000163984   0.000000000     0.400000000
 204203   1.000000000    -3999.6599836983   0.000477066    -0.0000001274   0.000163256   0.000000000     0.400000000
 205204   1.000000000    -3999.6599838245   0.000475371    -0.0000001262   0.000162535   0.000000000     0.400000000
 206205   1.000000000    -3999.6599839497   0.000473699    -0.0000001252   0.000161823   0.000000000     0.400000000
 207206   1.000000000    -3999.6599840738   0.000472049    -0.0000001241   0.000161118   0.000000000     0.400000000
 208207   1.000000000    -3999.6599841968   0.000470420    -0.0000001230   0.000160421   0.000000000     0.400000000
 209208   1.000000000    -3999.6599843188   0.000468813    -0.0000001220   0.000159732   0.000000000     0.400000000
 210209   1.000000000    -3999.6599844398   0.000467227    -0.0000001210   0.000159051   0.000000000     0.400000000
 211210   1.000000000    -3999.6599845598   0.000465663    -0.0000001200   0.000158377   0.000000000     0.400000000
 212211   1.000000000    -3999.6599846789   0.000464119    -0.0000001191   0.000157710   0.000000000     0.400000000
 213212   1.000000000    -3999.6599847971   0.000462596    -0.0000001182   0.000157051   0.000000000     0.400000000
 214213   1.000000000    -3999.6599849143   0.000461093    -0.0000001172   0.000156399   0.000000000     0.400000000
 215214   1.000000000    -3999.6599850307   0.000459610    -0.0000001163   0.000155755   0.000000000     0.400000000
 216215   1.000000000    -3999.6599851461   0.000458147    -0.0000001155   0.000155117   0.000000000     0.400000000
 217216   1.000000000    -3999.6599852608   0.000456703    -0.0000001146   0.000154487   0.000000000     0.400000000
 218217   1.000000000    -3999.6599853746   0.000455279    -0.0000001138   0.000153863   0.000000000     0.400000000
 219218   1.000000000    -3999.6599854876   0.000453874    -0.0000001130   0.000153246   0.000000000     0.400000000
 220219   1.000000000    -3999.6599855998   0.000452488    -0.0000001122   0.000152636   0.000000000     0.400000000
 221220   1.000000000    -3999.6599857112   0.000451120    -0.0000001114   0.000152032   0.000000000     0.400000000
 222221   1.000000000    -3999.6599858218   0.000449771    -0.0000001107   0.000151436   0.000000000     0.400000000
 223222   1.000000000    -3999.6599859318   0.000448440    -0.0000001099   0.000150845   0.000000000     0.400000000
 224223   1.000000000    -3999.6599860410   0.000447127    -0.0000001092   0.000150261   0.000000000     0.400000000
 225224   1.000000000    -3999.6599861495   0.000445832    -0.0000001085   0.000149683   0.000000000     0.400000000
 226225   1.000000000    -3999.6599862573   0.000444554    -0.0000001078   0.000149112   0.000000000     0.400000000
 227226   1.000000000    -3999.6599863644   0.000443293    -0.0000001071   0.000148546   0.000000000     0.400000000
 228227   1.000000000    -3999.6599864708   0.000442049    -0.0000001065   0.000147987   0.000000000     0.400000000
 229228   1.000000000    -3999.6599865767   0.000440823    -0.0000001058   0.000147434   0.000000000     0.400000000
 230229   1.000000000    -3999.6599866819   0.000439612    -0.0000001052   0.000146886   0.000000000     0.400000000
 231230   1.000000000    -3999.6599867864   0.000438418    -0.0000001046   0.000146344   0.000000000     0.400000000
 232231   1.000000000    -3999.6599868904   0.000437240    -0.0000001040   0.000145808   0.000000000     0.400000000
 233232   1.000000000    -3999.6599869938   0.000436078    -0.0000001034   0.000145278   0.000000000     0.400000000
 234233   1.000000000    -3999.6599870966   0.000434931    -0.0000001028   0.000144753   0.000000000     0.400000000
 235234   1.000000000    -3999.6599871988   0.000433800    -0.0000001023   0.000144233   0.000000000     0.400000000
 236235   1.000000000    -3999.6599873005   0.000432684    -0.0000001017   0.000143719   0.000000000     0.400000000
 237236   1.000000000    -3999.6599874017   0.000431583    -0.0000001012   0.000143211   0.000000000     0.400000000
 238237   1.000000000    -3999.6599875023   0.000430497    -0.0000001006   0.000142707   0.000000000     0.400000000
 239238   1.000000000    -3999.6599876025   0.000429425    -0.0000001001   0.000142209   0.000000000     0.400000000
 240239   1.000000000    -3999.6599877021   0.000428368    -0.0000000996   0.000141715   0.000000000     0.400000000
 241240   1.000000000    -3999.6599878012   0.000427324    -0.0000000991   0.000141227   0.000000000     0.400000000
 242241   1.000000000    -3999.6599878999   0.000426294    -0.0000000987   0.000140743   0.000000000     0.400000000
 243242   1.000000000    -3999.6599879981   0.000425278    -0.0000000982   0.000140264   0.000000000     0.400000000
 244243   1.000000000    -3999.6599880959   0.000424275    -0.0000000978   0.000139790   0.000000000     0.400000000
 245244   1.000000000    -3999.6599881932   0.000423286    -0.0000000973   0.000139321   0.000000000     0.400000000
 246245   1.000000000    -3999.6599882900   0.000422309    -0.0000000969   0.000138856   0.000000000     0.400000000
 247246   1.000000000    -3999.6599883865   0.000421345    -0.0000000964   0.000138396   0.000000000     0.400000000
 248247   1.000000000    -3999.6599884825   0.000420393    -0.0000000960   0.000137940   0.000000000     0.400000000
 249248   1.000000000    -3999.6599885781   0.000419454    -0.0000000956   0.000137488   0.000000000     0.400000000
 250249   1.000000000    -3999.6599886734   0.000418527    -0.0000000952   0.000137041   0.000000000     0.400000000
 251250   1.000000000    -3999.6599887682   0.000417611    -0.0000000948   0.000136598   0.000000000     0.400000000
 252251   1.000000000    -3999.6599888627   0.000416707    -0.0000000945   0.000136159   0.000000000     0.400000000
 253252   1.000000000    -3999.6599889568   0.000415814    -0.0000000941   0.000135724   0.000000000     0.400000000
 254253   1.000000000    -3999.6599890506   0.000414933    -0.0000000938   0.000135293   0.000000000     0.400000000
 255254   1.000000000    -3999.6599891440   0.000414062    -0.0000000934   0.000134866   0.000000000     0.400000000
 256255   1.000000000    -3999.6599892371   0.000413202    -0.0000000931   0.000134443   0.000000000     0.400000000
 257256   1.000000000    -3999.6599893298   0.000412352    -0.0000000928   0.000134024   0.000000000     0.400000000
 258257   1.000000000    -3999.6599894222   0.000411513    -0.0000000924   0.000133608   0.000000000     0.400000000
 259258   1.000000000    -3999.6599895144   0.000410683    -0.0000000921   0.000133196   0.000000000     0.400000000
 260259   1.000000000    -3999.6599896062   0.000409863    -0.0000000918   0.000132787   0.000000000     0.400000000
 261260   1.000000000    -3999.6599896977   0.000409053    -0.0000000915   0.000132382   0.000000000     0.400000000
 262261   1.000000000    -3999.6599897889   0.000408251    -0.0000000912   0.000131980   0.000000000     0.400000000
 263262   1.000000000    -3999.6599898799   0.000407459    -0.0000000909   0.000131582   0.000000000     0.400000000
 264263   1.000000000    -3999.6599899706   0.000406675    -0.0000000907   0.000131187   0.000000000     0.400000000
 265264   1.000000000    -3999.6599900610   0.000405900    -0.0000000904   0.000130795   0.000000000     0.400000000
 266265   1.000000000    -3999.6599901511   0.000405134    -0.0000000901   0.000130406   0.000000000     0.400000000
 267266   1.000000000    -3999.6599902410   0.000404375    -0.0000000899   0.000130020   0.000000000     0.400000000
 268267   1.000000000    -3999.6599903307   0.000403624    -0.0000000897   0.000130021   0.000000000     0.400000000
 269268   1.000000000    -3999.6599904201   0.000402880    -0.0000000894   0.000130039   0.000000000     0.400000000
 270269   1.000000000    -3999.6599905093   0.000402144    -0.0000000892   0.000130056   0.000000000     0.400000000
 271270   1.000000000    -3999.6599905983   0.000401415    -0.0000000890   0.000130074   0.000000000     0.400000000
 272271   1.000000000    -3999.6599906871   0.000400692    -0.0000000888   0.000130091   0.000000000     0.400000000
 273272   1.000000000    -3999.6599907756   0.000399976    -0.0000000886   0.000130108   0.000000000     0.400000000
 274273   1.000000000    -3999.6599908640   0.000399266    -0.0000000884   0.000130125   0.000000000     0.400000000
 275274   1.000000000    -3999.6599909521   0.000398562    -0.0000000881   0.000130141   0.000000000     0.400000000
 276275   1.000000000    -3999.6599910401   0.000397863    -0.0000000880   0.000130158   0.000000000     0.400000000
 277276   1.000000000    -3999.6599911279   0.000397170    -0.0000000878   0.000130174   0.000000000     0.400000000
 278277   1.000000000    -3999.6599912155   0.000396482    -0.0000000876   0.000130190   0.000000000     0.400000000
 279278   1.000000000    -3999.6599913029   0.000395799    -0.0000000874   0.000130205   0.000000000     0.400000000
 280279   1.000000000    -3999.6599913902   0.000395120    -0.0000000873   0.000130221   0.000000000     0.400000000
 281280   1.000000000    -3999.6599914773   0.000394445    -0.0000000871   0.000130236   0.000000000     0.400000000
 282281   1.000000000    -3999.6599915642   0.000393775    -0.0000000870   0.000130250   0.000000000     0.400000000
 283282   1.000000000    -3999.6599916511   0.000393107    -0.0000000868   0.000130264   0.000000000     0.400000000
 284283   1.000000000    -3999.6599917377   0.000392443    -0.0000000867   0.000130278   0.000000000     0.400000000
 285284   1.000000000    -3999.6599918243   0.000391783    -0.0000000865   0.000130291   0.000000000     0.400000000
 286285   1.000000000    -3999.6599919107   0.000391124    -0.0000000864   0.000130303   0.000000000     0.400000000
 287286   1.000000000    -3999.6599919969   0.000390468    -0.0000000863   0.000130315   0.000000000     0.400000000
 288287   1.000000000    -3999.6599920831   0.000389814    -0.0000000862   0.000130326   0.000000000     0.400000000
 289288   1.000000000    -3999.6599921691   0.000389161    -0.0000000860   0.000130337   0.000000000     0.400000000
 290289   1.000000000    -3999.6599922550   0.000388510    -0.0000000859   0.000130347   0.000000000     0.400000000
 291290   1.000000000    -3999.6599923409   0.000387859    -0.0000000858   0.000130356   0.000000000     0.400000000
 292291   1.000000000    -3999.6599924266   0.000387209    -0.0000000857   0.000130364   0.000000000     0.400000000
 293292   1.000000000    -3999.6599925122   0.000386559    -0.0000000856   0.000130372   0.000000000     0.400000000
 294293   1.000000000    -3999.6599925977   0.000385908    -0.0000000856   0.000130379   0.000000000     0.400000000
 295294   1.000000000    -3999.6599926832   0.000385257    -0.0000000854   0.000130384   0.000000000     0.400000000
 296295   1.000000000    -3999.6599927685   0.000384604    -0.0000000854   0.000130389   0.000000000     0.400000000
 297296   1.000000000    -3999.6599928538   0.000383950    -0.0000000853   0.000130393   0.000000000     0.400000000
 298297   1.000000000    -3999.6599929390   0.000383294    -0.0000000852   0.000130396   0.000000000     0.400000000
 299298   1.000000000    -3999.6599930241   0.000382636    -0.0000000851   0.000130398   0.000000000     0.400000000
 300299   1.000000000    -3999.6599931092   0.000381974    -0.0000000851   0.000130399   0.000000000     0.400000000
 301300   1.000000000    -3999.6599931942   0.000381309    -0.0000000850   0.000130398   0.000000000     0.400000000
 302301   1.000000000    -3999.6599932792   0.000380640    -0.0000000850   0.000130397   0.000000000     0.400000000
 303302   1.000000000    -3999.6599933641   0.000379967    -0.0000000849   0.000130394   0.000000000     0.400000000
 304303   1.000000000    -3999.6599934490   0.000379289    -0.0000000849   0.000130390   0.000000000     0.400000000
 305304   1.000000000    -3999.6599935338   0.000378604    -0.0000000848   0.000130384   0.000000000     0.400000000
 306305   1.000000000    -3999.6599936186   0.000377914    -0.0000000848   0.000130378   0.000000000     0.400000000
 307306   1.000000000    -3999.6599937033   0.000377217    -0.0000000847   0.000130369   0.000000000     0.400000000
 308307   1.000000000    -3999.6599937880   0.000376513    -0.0000000847   0.000130360   0.000000000     0.400000000
 309308   1.000000000    -3999.6599938727   0.000375801    -0.0000000847   0.000130348   0.000000000     0.400000000
 310309   1.000000000    -3999.6599939574   0.000375080    -0.0000000847   0.000130335   0.000000000     0.400000000
 311310   1.000000000    -3999.6599940420   0.000374349    -0.0000000846   0.000130321   0.000000000     0.400000000
[...]
             41  TI 2  S      2.00055     1.98714
             42  TI 2  X      1.99809     1.97887
             43  TI 2  Y      1.99814     1.97925
             44  TI 2  Z      1.99815     1.97907
             45  TI 2  S      2.08249     0.86192
             46  TI 2  X      2.03836     1.52768
             47  TI 2  Y      2.04188     1.53527
             48  TI 2  Z      2.03671     1.53135
             49  TI 2  S     -0.01094     0.11242
             50  TI 2  X      0.09436     0.17712
             51  TI 2  Y      0.14434     0.21128
             52  TI 2  Z      0.05396     0.17994
             53  TI 2  S      0.06165     0.06170
             54  TI 2  X      0.03166     0.06309
             55  TI 2  Y      0.03706     0.06066
             56  TI 2  Z      0.02378     0.06125
             57  TI 2 XX      0.09165     0.46366
             58  TI 2 YY      0.08090     0.45383
             59  TI 2 ZZ      0.11070     0.46109
             60  TI 2 XY      0.10775     0.09580
             61  TI 2 XZ      0.24297     0.22661
             62  TI 2 YZ      0.18330     0.16463
             63  TI 2 XX      0.16280     0.24877
             64  TI 2 YY      0.13642     0.22495
             65  TI 2 ZZ      0.19249     0.27394
             66  TI 2 XY      0.14707     0.20676
             67  TI 2 XZ      0.21183     0.28187
             68  TI 2 YZ      0.21843     0.30602
             69  TI 2 XXX    -0.01518     0.25600
             70  TI 2 YYY    -0.01576     0.25403
             71  TI 2 ZZZ    -0.01637     0.25307
             72  TI 2 XXY    -0.00496     0.11896
             73  TI 2 XXZ    -0.00022     0.12338
             74  TI 2 YYX    -0.00463     0.11957
             75  TI 2 YYZ     0.00063     0.12385
             76  TI 2 ZZX    -0.00020     0.12623
             77  TI 2 ZZY    -0.00123     0.12315
             78  TI 2 XYZ     0.00475     0.00881
             79  O  3  S      1.99370     1.97650
             80  O  3  S      0.86652     0.71628
             81  O  3  X      0.99143     0.96699
             82  O  3  Y      0.96460     0.93314
             83  O  3  Z      0.91685     0.88810
             84  O  3  S      1.10589     0.43483
             85  O  3  X      0.73752     0.63257
             86  O  3  Y      0.70502     0.66421
             87  O  3  Z      0.71934     0.67559
             88  O  3 XX      0.01505     0.18283
             89  O  3 YY     -0.00682     0.17113
             90  O  3 ZZ     -0.01187     0.16582
             91  O  3 XY      0.00191     0.00372
             92  O  3 XZ      0.00201     0.00340
             93  O  3 YZ      0.00355     0.00354
             94  O  4  S      1.99404     1.97762
             95  O  4  S      0.93211     0.74871
             96  O  4  X      0.88024     0.84315
             97  O  4  Y      0.95635     0.91552
             98  O  4  Z      0.92477     0.88552
             99  O  4  S      1.03104     0.49890
            100  O  4  X      0.64787     0.68450
            101  O  4  Y      0.66983     0.70295
            102  O  4  Z      0.55025     0.59435
            103  O  4 XX      0.00102     0.18395
            104  O  4 YY     -0.00417     0.18105
            105  O  4 ZZ      0.01388     0.18206
            106  O  4 XY      0.00050     0.00084
            107  O  4 XZ      0.00455     0.00687
            108  O  4 YZ      0.00516     0.00588
            109  O  5  S      1.99409     1.97773
            110  O  5  S      0.92613     0.74707
            111  O  5  X      0.94027     0.89926
            112  O  5  Y      0.88638     0.85100
            113  O  5  Z      0.92311     0.88281
            114  O  5  S      1.07055     0.50292
            115  O  5  X      0.61811     0.65879
            116  O  5  Y      0.70233     0.72373
            117  O  5  Z      0.56570     0.61237
            118  O  5 XX     -0.00423     0.18147
            119  O  5 YY     -0.01660     0.17743
            120  O  5 ZZ      0.00805     0.18309
            121  O  5 XY      0.00079     0.00101
            122  O  5 XZ      0.00514     0.00800
            123  O  5 YZ      0.00240     0.00266
            124  O  6  S      1.99379     1.97691
            125  O  6  S      0.88903     0.72372
            126  O  6  X      0.95558     0.91730
            127  O  6  Y      0.94576     0.91006
            128  O  6  Z      0.96067     0.92726
            129  O  6  S      1.05972     0.45139
            130  O  6  X      0.62467     0.61927
            131  O  6  Y      0.66976     0.65784
            132  O  6  Z      0.72579     0.71916
            133  O  6 XX      0.01825     0.18349
            134  O  6 YY      0.00770     0.17345
            135  O  6 ZZ     -0.00686     0.17266
            136  O  6 XY      0.00494     0.00667
            137  O  6 XZ      0.00217     0.00336
            138  O  6 YZ      0.00205     0.00277
            139  TI 7  S      1.99999     1.99963
            140  TI 7  S      2.00055     1.98718
            141  TI 7  X      1.99829     1.97990
            142  TI 7  Y      1.99808     1.97879
            143  TI 7  Z      1.99805     1.97864
            144  TI 7  S      2.08888     0.86280
            145  TI 7  X      2.04429     1.54207
            146  TI 7  Y      2.03953     1.52816
            147  TI 7  Z      2.04000     1.52808
            148  TI 7  S     -0.07972     0.11088
            149  TI 7  X      0.06313     0.19141
            150  TI 7  Y      0.07838     0.15500
            151  TI 7  Z      0.09841     0.15007
            152  TI 7  S      0.11338     0.05933
            153  TI 7  X      0.01369     0.05969
            154  TI 7  Y     -0.01651     0.05168
            155  TI 7  Z     -0.00676     0.04626
            156  TI 7 XX      0.13689     0.47221
            157  TI 7 YY      0.07586     0.45036
            158  TI 7 ZZ      0.05437     0.44464
            159  TI 7 XY      0.16492     0.14844
            160  TI 7 XZ      0.18152     0.16539
            161  TI 7 YZ      0.16939     0.15320
            162  TI 7 XX      0.26088     0.35123
            163  TI 7 YY      0.13515     0.20345
            164  TI 7 ZZ      0.10460     0.16526
            165  TI 7 XY      0.22299     0.28350
            166  TI 7 XZ      0.20523     0.26994
            167  TI 7 YZ      0.17189     0.26139
            168  TI 7 XXX    -0.00650     0.25853
            169  TI 7 YYY    -0.01551     0.25604
            170  TI 7 ZZZ    -0.02031     0.25429
            171  TI 7 XXY    -0.00217     0.12401
            172  TI 7 XXZ    -0.00142     0.12456
            173  TI 7 YYX    -0.00425     0.11738
            174  TI 7 YYZ     0.00010     0.12505
            175  TI 7 ZZX    -0.00551     0.11601
            176  TI 7 ZZY    -0.00164     0.12224
            177  TI 7 XYZ     0.00345     0.00659
            178  O  8  S      1.99373     1.97695
            179  O  8  S      0.89332     0.72763
            180  O  8  X      1.00795     0.97341
            181  O  8  Y      0.94964     0.90424
            182  O  8  Z      0.89445     0.85766
            183  O  8  S      1.07689     0.44309
            184  O  8  X      0.71496     0.70818
            185  O  8  Y      0.61614     0.59190
            186  O  8  Z      0.63969     0.63741
            187  O  8 XX     -0.01225     0.16895
            188  O  8 YY      0.01671     0.18458
            189  O  8 ZZ      0.00464     0.16998
            190  O  8 XY      0.00120     0.00231
            191  O  8 XZ      0.00395     0.00386
            192  O  8 YZ      0.00475     0.00693
            193  TI 9  S      1.99999     1.99963
            194  TI 9  S      2.00056     1.98723
            195  TI 9  X      1.99828     1.97985
            196  TI 9  Y      1.99806     1.97865
            197  TI 9  Z      1.99807     1.97876
            198  TI 9  S      2.08777     0.86279
            199  TI 9  X      2.04428     1.54141
            200  TI 9  Y      2.03812     1.52611
            201  TI 9  Z      2.03943     1.52916
            202  TI 9  S     -0.04552     0.11406
            203  TI 9  X      0.06786     0.18927
            204  TI 9  Y      0.08694     0.14612
            205  TI 9  Z      0.11843     0.16752
            206  TI 9  S      0.10599     0.05955
            207  TI 9  X      0.00934     0.05945
            208  TI 9  Y     -0.02450     0.05157
            209  TI 9  Z     -0.00021     0.04737
            210  TI 9 XX      0.13295     0.47209
            211  TI 9 YY      0.06840     0.44944
            212  TI 9 ZZ      0.05207     0.43336
            213  TI 9 XY      0.15132     0.13619
            214  TI 9 XZ      0.18643     0.16928
            215  TI 9 YZ      0.19835     0.18034
            216  TI 9 XX      0.23914     0.33886
            217  TI 9 YY      0.13179     0.19175
            218  TI 9 ZZ      0.12001     0.18178
            219  TI 9 XY      0.20866     0.26631
            220  TI 9 XZ      0.21709     0.28634
            221  TI 9 YZ      0.18695     0.28350
            222  TI 9 XXX    -0.00629     0.25875
            223  TI 9 YYY    -0.01671     0.25658
            224  TI 9 ZZZ    -0.02068     0.25309
            225  TI 9 XXY    -0.00283     0.12379
            226  TI 9 XXZ    -0.00110     0.12437
            227  TI 9 YYX    -0.00515     0.11644
            228  TI 9 YYZ     0.00108     0.12547
            229  TI 9 ZZX    -0.00525     0.11659
            230  TI 9 ZZY    -0.00069     0.12396
            231  TI 9 XYZ     0.00365     0.00667
            232  O 10  S      1.99383     1.97711
            233  O 10  S      0.89813     0.72753
            234  O 10  X      0.93434     0.89914
            235  O 10  Y      0.96922     0.92865
            236  O 10  Z      0.95267     0.92079
            237  O 10  S      1.06524     0.45406
            238  O 10  X      0.64212     0.63559
            239  O 10  Y      0.66336     0.64299
            240  O 10  Z      0.71978     0.71772
            241  O 10 XX     -0.00102     0.17161
            242  O 10 YY      0.00234     0.17574
            243  O 10 ZZ     -0.01023     0.17262
            244  O 10 XY      0.00412     0.00470
            245  O 10 XZ      0.00278     0.00454
            246  O 10 YZ      0.00198     0.00326
            247  O 11  S      1.99373     1.97677
            248  O 11  S      0.89046     0.72148
            249  O 11  X      0.93750     0.90007
            250  O 11  Y      0.95638     0.92200
            251  O 11  Z      0.97690     0.93862
            252  O 11  S      1.02849     0.44695
            253  O 11  X      0.65034     0.63085
            254  O 11  Y      0.68123     0.68009
            255  O 11  Z      0.68175     0.67813
            256  O 11 XX      0.01932     0.17981
            257  O 11 YY      0.01018     0.17383
            258  O 11 ZZ      0.01009     0.17772
            259  O 11 XY      0.00463     0.00568
            260  O 11 XZ      0.00318     0.00512
            261  O 11 YZ      0.00223     0.00350
            262  O 12  S      1.99378     1.97699
            263  O 12  S      0.90394     0.72804
            264  O 12  X      0.93273     0.89973
            265  O 12  Y      0.94793     0.91137
            266  O 12  Z      0.98774     0.94932
            267  O 12  S      1.02598     0.45047
            268  O 12  X      0.63050     0.62648
            269  O 12  Y      0.69447     0.67884
            270  O 12  Z      0.68742     0.68214
            271  O 12 XX      0.00802     0.17489
            272  O 12 YY      0.00726     0.17772
            273  O 12 ZZ      0.00334     0.17590
            274  O 12 XY      0.00283     0.00338
            275  O 12 XZ      0.00258     0.00357
            276  O 12 YZ      0.00162     0.00317

          ----- MULLIKEN ATOMIC OVERLAP POPULATIONS -----
          (OFF-DIAGONAL ELEMENTS NEED TO BE MULTIPLIED BY 2)

             1           2           3           4           5

    1   20.3123955
    2   -0.0602990  20.2983885
    3    0.0584415   0.0666067   8.7956366
    4    0.4090600  -0.0058573   0.0007669   8.2237341
    5   -0.0054044   0.4002420   0.0006338   0.0000000   8.2493078
    6   -0.0042673   0.1200230  -0.0199243   0.0000001   0.0006581
    7   -0.2393525  -0.2168409   0.0726414  -0.0112813  -0.0115412
    8   -0.0207188  -0.0212650  -0.0113179  -0.0000006  -0.0000004
    9   -0.2219748  -0.2332900   0.1015486  -0.0105031  -0.0123906
   10    0.1162648  -0.0028664  -0.0210013   0.0006605   0.0000001
   11    0.1240288  -0.0048362  -0.0208657   0.0008632   0.0000001
   12   -0.0035557   0.1233576  -0.0184817   0.0000002   0.0007202

             6           7           8           9          10

    6    8.5628885
    7   -0.0037526  20.2664953
    8    0.0013972   0.1606135   8.5073375
    9    0.1979845  -0.1259452   0.1843773  20.2825852
   10   -0.0020539  -0.0019355   0.0014092   0.2079369   8.5398715
   11   -0.0000048   0.2036080   0.0022134  -0.0045381   0.0003931
   12    0.0000557   0.2088640   0.0017364  -0.0037071  -0.0000026

            11          12

   11    8.5476762
   12   -0.0021325   8.5232872

          TOTAL MULLIKEN AND LOWDIN ATOMIC POPULATIONS
       ATOM         MULL.POP.    CHARGE          LOW.POP.     CHARGE
    1 TI           20.464618    1.535382        21.219703    0.780297
    2 TI           20.463363    1.536637        21.222635    0.777365
    3 O             9.004685   -1.004685         8.418660   -0.418660
    4 O             8.607443   -0.607443         8.411869   -0.411869
    5 O             8.622225   -0.622225         8.409346   -0.409346
    6 O             8.853004   -0.853004         8.445303   -0.445303
    7 TI           20.301573    1.698427        21.083286    0.916714
    8 O             8.805782   -0.805782         8.357076   -0.357076
    9 TI           20.362084    1.637916        21.113447    0.886553
   10 O             8.838676   -0.838676         8.436047   -0.436047
   11 O             8.846405   -0.846405         8.440619   -0.440619
   12 O             8.830142   -0.830142         8.442009   -0.442009

          -------------------------------
          BOND ORDER AND VALENCE ANALYSIS     BOND ORDER THRESHOLD=0.050
          -------------------------------

                   BOND                       BOND                       BOND
  ATOM PAIR DIST  ORDER      ATOM PAIR DIST  ORDER      ATOM PAIR DIST  ORDER
    1   3  2.003  0.312        1   4  1.704  2.089        1   7  2.863  0.060
    1   9  2.863  0.061        1  10  1.844  0.665        1  11  1.844  0.677
    2   3  2.003  0.329        2   5  1.704  2.069        2   6  1.844  0.673
    2   7  2.863  0.058        2   9  2.863  0.061        2  12  1.844  0.679
    3   7  2.027  0.444        3   9  2.027  0.505        6   9  1.781  1.076
    7   8  1.804  0.899        7   9  2.786  0.098        7  11  1.781  1.091
    7  12  1.781  1.108        8   9  1.804  0.944        9  10  1.781  1.104

                       TOTAL       BONDED        FREE
      ATOM            VALENCE     VALENCE     VALENCE
    1 TI                3.798       3.794       0.004
    2 TI                3.802       3.798       0.003
    3 O                 1.644       1.637       0.007
    4 O                 2.116       2.104       0.012
    5 O                 2.103       2.088       0.015
    6 O                 1.835       1.818       0.017
    7 TI                3.712       3.679       0.033
    8 O                 1.884       1.857       0.028
    9 TI                3.819       3.766       0.053
   10 O                 1.861       1.843       0.018
   11 O                 1.843       1.840       0.003
   12 O                 1.864       1.861       0.003

          -----------------------------------------
          ATOMIC SPIN DENSITY AT THE NUCLEUS (A.U.)
          -----------------------------------------
                            SPIN DENS    ALPHA DENS     BETA DENS
    1  TI          22.0     0.0000000    6705.73632    6705.73632
    2  TI          22.0     0.0000000    6705.74333    6705.74333
    3  O            8.0     0.0000000     290.39935     290.39935
    4  O            8.0     0.0000000     290.78235     290.78235
    5  O            8.0     0.0000000     290.92966     290.92966
    6  O            8.0     0.0000000     290.44502     290.44502
    7  TI          22.0     0.0000000    6705.92598    6705.92598
    8  O            8.0     0.0000000     290.54593     290.54593
    9  TI          22.0     0.0000000    6705.94284    6705.94284
   10  O            8.0     0.0000000     290.62629     290.62629
   11  O            8.0     0.0000000     290.28296     290.28296
   12  O            8.0     0.0000000     290.46970     290.46970

          ---------------------
          ELECTROSTATIC MOMENTS
          ---------------------

 POINT   1           X           Y           Z (BOHR)    CHARGE
                 0.472005    0.218506    0.103067        0.00 (A.U.)
         DX          DY          DZ         /D/  (DEBYE)
    -0.987280   -1.016782   -8.353407    8.472779
 ...... END OF PROPERTY EVALUATION ......
 CPU     0: STEP CPU TIME=     0.08 TOTAL CPU TIME=       1989.3 (     33.2 MIN)
 TOTAL WALL CLOCK TIME=       2125.1 SECONDS, CPU UTILIZATION IS    93.61%
               2686690  WORDS OF DYNAMIC MEMORY USED
 EXECUTION OF GAMESS TERMINATED NORMALLY Thu Jun 29 20:21:55 2023
 DDI: 263640 bytes (0.3 MB / 0 MWords) used by master data server.

 ----------------------------------------
 CPU timing information for all processes
 ========================================
 0: 1847.245 + 142.79 = 1989.325
 1: 1881.279 + 149.437 = 2030.717
 2: 1821.751 + 135.942 = 1957.693
 3: 1884.514 + 153.08 = 2037.522
 4: 1721.271 + 146.423 = 1867.695
 5: 1811.360 + 163.382 = 1974.742
 6: 1750.961 + 160.293 = 1911.255
 7: 1822.449 + 143.524 = 1965.973
 8: 1805.173 + 133.232 = 1938.406
 9: 1754.535 + 146.855 = 1901.390
 10: 1817.409 + 140.291 = 1957.701
 11: 1850.704 + 132.608 = 1983.313
 ----------------------------------------
 ddikick.x: exited gracefully.
unset echo
----- accounting info -----
Files used on the master node cpn-p27-17.compute.cbls.ccr.buffalo.edu were:
-rw-rw-r-- 1 mrecio mrecio   1238271 Jun 29 20:21 /user/mrecio/work-dir/gam-scr/tme-00-reks_SA_REKS22.dat
-rw-rw-r-- 1 mrecio mrecio   1237014 Jun 29 19:46 /user/mrecio/work-dir/gam-scr/tme-00-reks_SA_REKS22.F05
-rw-rw-r-- 1 mrecio mrecio 579878656 Jun 29 19:47 /user/mrecio/work-dir/gam-scr/tme-00-reks_SA_REKS22.F08
-rw-rw-r-- 1 mrecio mrecio 599319952 Jun 29 19:47 /user/mrecio/work-dir/gam-scr/tme-00-reks_SA_REKS22.F08.001
-rw-rw-r-- 1 mrecio mrecio 511714112 Jun 29 19:47 /user/mrecio/work-dir/gam-scr/tme-00-reks_SA_REKS22.F08.002
-rw-rw-r-- 1 mrecio mrecio 600040000 Jun 29 19:47 /user/mrecio/work-dir/gam-scr/tme-00-reks_SA_REKS22.F08.003
-rw-rw-r-- 1 mrecio mrecio 515554368 Jun 29 19:47 /user/mrecio/work-dir/gam-scr/tme-00-reks_SA_REKS22.F08.004
-rw-rw-r-- 1 mrecio mrecio 565477696 Jun 29 19:47 /user/mrecio/work-dir/gam-scr/tme-00-reks_SA_REKS22.F08.005
-rw-rw-r-- 1 mrecio mrecio 530435360 Jun 29 19:47 /user/mrecio/work-dir/gam-scr/tme-00-reks_SA_REKS22.F08.006
-rw-rw-r-- 1 mrecio mrecio 568117872 Jun 29 19:47 /user/mrecio/work-dir/gam-scr/tme-00-reks_SA_REKS22.F08.007
-rw-rw-r-- 1 mrecio mrecio 562117472 Jun 29 19:47 /user/mrecio/work-dir/gam-scr/tme-00-reks_SA_REKS22.F08.008
-rw-rw-r-- 1 mrecio mrecio 531875456 Jun 29 19:47 /user/mrecio/work-dir/gam-scr/tme-00-reks_SA_REKS22.F08.009
-rw-rw-r-- 1 mrecio mrecio 568597904 Jun 29 19:47 /user/mrecio/work-dir/gam-scr/tme-00-reks_SA_REKS22.F08.010
-rw-rw-r-- 1 mrecio mrecio 588759248 Jun 29 19:47 /user/mrecio/work-dir/gam-scr/tme-00-reks_SA_REKS22.F08.011
-rw-rw-r-- 1 mrecio mrecio  65536000 Jun 29 20:21 /user/mrecio/work-dir/gam-scr/tme-00-reks_SA_REKS22.F10
ls: No match.
ls: No match.
ls: No match.
Thu Jun 29 20:21:59 EDT 2023
0.347u 0.756s 35:29.61 0.0%	0+0k 2424+2624io 0pf+0w
