[Molden Format]
[Atoms] AU
   C     1    6      1.8757609178     1.8757609178     0.0000000000
   C     2    6     -2.5623370652     0.6865761474     0.0000000000
   C     3    6      0.6865761474    -2.5623370652     0.0000000000
   C     4    6     -1.8757609178    -1.8757609178     0.0000000000
   C     5    6      2.5623370652    -0.6865761474     0.0000000000
   C     6    6     -0.6865761474     2.5623370652     0.0000000000
   H     7    1      3.3219871122     3.3219871122     0.0000000000
   H     8    1     -4.5379187863     1.2159316741     0.0000000000
   H     9    1      1.2159316741    -4.5379187863     0.0000000000
   H    10    1     -3.3219871122    -3.3219871122     0.0000000000
   H    11    1      4.5379187863    -1.2159316741     0.0000000000
   H    12    1     -1.2159316741     4.5379187863     0.0000000000
[GTO]
    1  0
  s      3  0
       172.2560000000         0.0617669074
        25.9109000000         0.3587940429
         5.5333500000         0.7007130837
  s      2  0
         3.6649800000        -0.3958951620
         0.7705450000         1.2158343556
  p      2  0
         3.6649800000         0.2364599466
         0.7705450000         0.8606188057
  s      1  0
         0.1958570000         1.0000000000
  p      1  0
         0.1958570000         1.0000000000

    2  0
  s      3  0
       172.2560000000         0.0617669074
        25.9109000000         0.3587940429
         5.5333500000         0.7007130837
  s      2  0
         3.6649800000        -0.3958951620
         0.7705450000         1.2158343556
  p      2  0
         3.6649800000         0.2364599466
         0.7705450000         0.8606188057
  s      1  0
         0.1958570000         1.0000000000
  p      1  0
         0.1958570000         1.0000000000

    3  0
  s      3  0
       172.2560000000         0.0617669074
        25.9109000000         0.3587940429
         5.5333500000         0.7007130837
  s      2  0
         3.6649800000        -0.3958951620
         0.7705450000         1.2158343556
  p      2  0
         3.6649800000         0.2364599466
         0.7705450000         0.8606188057
  s      1  0
         0.1958570000         1.0000000000
  p      1  0
         0.1958570000         1.0000000000

    4  0
  s      3  0
       172.2560000000         0.0617669074
        25.9109000000         0.3587940429
         5.5333500000         0.7007130837
  s      2  0
         3.6649800000        -0.3958951620
         0.7705450000         1.2158343556
  p      2  0
         3.6649800000         0.2364599466
         0.7705450000         0.8606188057
  s      1  0
         0.1958570000         1.0000000000
  p      1  0
         0.1958570000         1.0000000000

    5  0
  s      3  0
       172.2560000000         0.0617669074
        25.9109000000         0.3587940429
         5.5333500000         0.7007130837
  s      2  0
         3.6649800000        -0.3958951620
         0.7705450000         1.2158343556
  p      2  0
         3.6649800000         0.2364599466
         0.7705450000         0.8606188057
  s      1  0
         0.1958570000         1.0000000000
  p      1  0
         0.1958570000         1.0000000000

    6  0
  s      3  0
       172.2560000000         0.0617669074
        25.9109000000         0.3587940429
         5.5333500000         0.7007130837
  s      2  0
         3.6649800000        -0.3958951620
         0.7705450000         1.2158343556
  p      2  0
         3.6649800000         0.2364599466
         0.7705450000         0.8606188057
  s      1  0
         0.1958570000         1.0000000000
  p      1  0
         0.1958570000         1.0000000000

    7  0
  s      2  0
         5.4471780000         0.1562849787
         0.8245472400         0.9046908767
  s      1  0
         0.1831915800         1.0000000000

    8  0
  s      2  0
         5.4471780000         0.1562849787
         0.8245472400         0.9046908767
  s      1  0
         0.1831915800         1.0000000000

    9  0
  s      2  0
         5.4471780000         0.1562849787
         0.8245472400         0.9046908767
  s      1  0
         0.1831915800         1.0000000000

   10  0
  s      2  0
         5.4471780000         0.1562849787
         0.8245472400         0.9046908767
  s      1  0
         0.1831915800         1.0000000000

   11  0
  s      2  0
         5.4471780000         0.1562849787
         0.8245472400         0.9046908767
  s      1  0
         0.1831915800         1.0000000000

   12  0
  s      2  0
         5.4471780000         0.1562849787
         0.8245472400         0.9046908767
  s      1  0
         0.1831915800         1.0000000000

[5D]
[9G]
[MO]
Ene=  -0.10129675644732E+02
Spin= Alpha
Occup=       2.00000000000000
     1    0.4030573512330772
     2    0.0495141390378783
     3   -0.0009797009568915
     4   -0.0009797009568915
     5   -0.0000000000000000
     6   -0.0915977441304481
     7    0.0290455076098581
     8    0.0290455076098581
     9    0.0000000000000000
    10    0.4030573512330772
    11    0.0495141390378783
    12    0.0013382963952257
    13   -0.0003585954383342
    14   -0.0000000000000000
    15   -0.0915977441304481
    16   -0.0396769012608804
    17    0.0106313936510223
    18    0.0000000000000000
    19    0.4030573512330771
    20    0.0495141390378783
    21   -0.0003585954383342
    22    0.0013382963952257
    23    0.0000000000000000
    24   -0.0915977441304481
    25    0.0106313936510223
    26   -0.0396769012608804
    27    0.0000000000000000
    28   -0.4030573512330771
    29   -0.0495141390378783
    30   -0.0009797009568915
    31   -0.0009797009568915
    32   -0.0000000000000000
    33    0.0915977441304481
    34    0.0290455076098581
    35    0.0290455076098581
    36   -0.0000000000000000
    37   -0.4030573512330771
    38   -0.0495141390378783
    39    0.0013382963952257
    40   -0.0003585954383342
    41   -0.0000000000000000
    42    0.0915977441304481
    43   -0.0396769012608804
    44    0.0106313936510223
    45    0.0000000000000000
    46   -0.4030573512330771
    47   -0.0495141390378783
    48   -0.0003585954383342
    49    0.0013382963952257
    50   -0.0000000000000000
    51    0.0915977441304481
    52    0.0106313936510223
    53   -0.0396769012608804
    54   -0.0000000000000000
    55   -0.0018348475113410
    56   -0.0038776193946155
    57   -0.0018348475113410
    58   -0.0038776193946155
    59   -0.0018348475113410
    60   -0.0038776193946155
    61    0.0018348475113410
    62    0.0038776193946155
    63    0.0018348475113410
    64    0.0038776193946155
    65    0.0018348475113410
    66    0.0038776193946155
Ene=  -0.10129033004277E+02
Spin= Alpha
Occup=       2.00000000000000
     1   -0.2261238436522303
     2   -0.0259573154592662
     3    0.0001856576724071
     4    0.0008149846974644
     5   -0.0000000000000000
     6    0.0260604785023320
     7    0.0016449162985328
     8   -0.0115874940668864
     9   -0.0000000000000000
    10    0.5655311900136767
    11    0.0649187244659240
    12    0.0017237163481467
    13   -0.0004041963796261
    14    0.0000000000000000
    15   -0.0651767331639227
    16   -0.0172870788617634
    17    0.0034194303210056
    18    0.0000000000000000
    19   -0.3394073463610757
    20   -0.0389614090066198
    21   -0.0001011547742962
    22   -0.0011266037267832
    23   -0.0000000000000000
    24    0.0391162546615653
    25    0.0051752964709679
    26    0.0123115568801931
    27    0.0000000000000000
    28   -0.2261238436533131
    29   -0.0259573154593835
    30   -0.0001856576724028
    31   -0.0008149846974706
    32    0.0000000000000000
    33    0.0260604785024083
    34   -0.0016449162985556
    35    0.0115874940669232
    36   -0.0000000000000000
    37    0.5655311900125374
    38    0.0649187244658019
    39   -0.0017237163481471
    40    0.0004041963796187
    41   -0.0000000000000000
    42   -0.0651767331638456
    43    0.0172870788617644
    44   -0.0034194303209614
    45    0.0000000000000000
    46   -0.3394073463588541
    47   -0.0389614090063816
    48    0.0001011547742969
    49    0.0011266037267813
    50   -0.0000000000000000
    51    0.0391162546614336
    52   -0.0051752964709679
    53   -0.0123115568801908
    54    0.0000000000000000
    55    0.0005201427826533
    56   -0.0011292648928861
    57   -0.0013008666494446
    58    0.0028242688095299
    59    0.0007807238667894
    60   -0.0016950039166396
    61    0.0005201427826565
    62   -0.0011292648928972
    63   -0.0013008666494412
    64    0.0028242688095190
    65    0.0007807238667837
    66   -0.0016950039166126
Ene=  -0.10129033004277E+02
Spin= Alpha
Occup=       2.00000000000000
     1    0.5224665075760563
     2    0.0599752230238287
     3   -0.0012921949700893
     4   -0.0010198218251014
     5    0.0000000000000001
     6   -0.0602135845956347
     7    0.0143498228230714
     8    0.0086228270267280
     9    0.0000000000000001
    10   -0.0654042607820504
    11   -0.0075079169099565
    12   -0.0000730138930039
    13    0.0005182368506399
    14   -0.0000000000000000
    15    0.0075377558799140
    16   -0.0006571015647952
    17   -0.0103091681335747
    18   -0.0000000000000001
    19   -0.4570622467932383
    20   -0.0524673061137940
    21    0.0006493934541569
    22   -0.0013066342718025
    23    0.0000000000000000
    24    0.0526758287156822
    25   -0.0095492281240097
    26    0.0121532071991431
    27    0.0000000000000000
    28    0.5224665075745735
    29    0.0599752230236695
    30    0.0012921949700932
    31    0.0010198218250951
    32    0.0000000000000001
    33   -0.0602135845955390
    34   -0.0143498228230938
    35   -0.0086228270266933
    36    0.0000000000000001
    37   -0.0654042607829212
    38   -0.0075079169100508
    39    0.0000730138930028
    40   -0.0005182368506483
    41   -0.0000000000000000
    42    0.0075377558799738
    43    0.0006571015648006
    44    0.0103091681336218
    45   -0.0000000000000001
    46   -0.4570622467908848
    47   -0.0524673061135426
    48   -0.0006493934541575
    49    0.0013066342717998
    50    0.0000000000000000
    51    0.0526758287155420
    52    0.0095492281240145
    53   -0.0121532071991361
    54    0.0000000000000000
    55   -0.0012018068448908
    56    0.0026092033249969
    57    0.0001504465590672
    58   -0.0003266295776345
    59    0.0010513602858208
    60   -0.0022825737473489
    61   -0.0012018068448864
    62    0.0026092033249808
    63    0.0001504465590694
    64   -0.0003266295776431
    65    0.0010513602858143
    66   -0.0022825737473217
Ene=  -0.10127892084200E+02
Spin= Alpha
Occup=       2.00000000000000
     1    0.5656263055613390
     2    0.0606783825200580
     3   -0.0002361584320619
     4   -0.0005784473707057
     5   -0.0000000000000000
     6   -0.0352612902456909
     7    0.0005129055038362
     8    0.0024490244873424
     9   -0.0000000000000000
    10   -0.2282192670014601
    11   -0.0244825529601599
    12   -0.0007425794428762
    13   -0.0018733801012199
    14    0.0000000000000000
    15    0.0142272481571266
    16    0.0037467647982965
    17    0.0107180934177880
    18    0.0000000000000000
    19   -0.3374070385598789
    20   -0.0361958295598981
    21   -0.0016108135782863
    22   -0.0007873402755874
    23   -0.0000000000000000
    24    0.0210340420885643
    25    0.0092910589104769
    26    0.0037829546512982
    27   -0.0000000000000000
    28   -0.5656263055623680
    29   -0.0606783825201761
    30   -0.0002361584320653
    31   -0.0005784473707068
    32   -0.0000000000000000
    33    0.0352612902458095
    34    0.0005129055038823
    35    0.0024490244873416
    36   -0.0000000000000000
    37    0.2282192670003703
    38    0.0244825529600348
    39   -0.0007425794428725
    40   -0.0018733801012193
    41    0.0000000000000000
    42   -0.0142272481570010
    43    0.0037467647982554
    44    0.0107180934177653
    45    0.0000000000000000
    46    0.3374070385619979
    47    0.0361958295601413
    48   -0.0016108135782846
    49   -0.0007873402755938
    50   -0.0000000000000000
    51   -0.0210340420888085
    52    0.0092910589104604
    53    0.0037829546513620
    54   -0.0000000000000000
    55   -0.0015810436689445
    56    0.0064497907453017
    57    0.0006379205204495
    58   -0.0026023657346384
    59    0.0009431231484951
    60   -0.0038474250106633
    61    0.0015810436689469
    62   -0.0064497907453069
    63   -0.0006379205204470
    64    0.0026023657346330
    65   -0.0009431231484999
    66    0.0038474250106739
Ene=  -0.10127892084200E+02
Spin= Alpha
Occup=       2.00000000000000
     1   -0.0630395893027239
     2   -0.0067626633980966
     3    0.0015809977943065
     4   -0.0014902092034184
     5   -0.0000000000000000
     6    0.0039299043087820
     7   -0.0088510238836482
     8    0.0085209139712193
     9    0.0000000000000000
    10    0.5213665443157857
    11    0.0559303524219167
    12    0.0002860650637886
    13   -0.0009837881926081
    14   -0.0000000000000000
    15   -0.0325021252773205
    16   -0.0005819549531622
    17    0.0052870546768035
    18    0.0000000000000000
    19   -0.4583269550128052
    20   -0.0491676890237934
    21    0.0013721048894195
    22   -0.0001155540571933
    23   -0.0000000000000000
    24    0.0285722209685193
    25   -0.0075170937196291
    26   -0.0002572394354382
    27    0.0000000000000000
    28    0.0630395893020656
    29    0.0067626633980188
    30    0.0015809977943029
    31   -0.0014902092034192
    32    0.0000000000000000
    33   -0.0039299043086939
    34   -0.0088510238835983
    35    0.0085209139712065
    36   -0.0000000000000000
    37   -0.5213665443172181
    38   -0.0559303524220845
    39    0.0002860650637945
    40   -0.0009837881926080
    41    0.0000000000000000
    42    0.0325021252775012
    43   -0.0005819549532214
    44    0.0052870546767864
    45   -0.0000000000000000
    46    0.4583269550154087
    47    0.0491676890240902
    48    0.0013721048894212
    49   -0.0001155540572001
    50    0.0000000000000000
    51   -0.0285722209688075
    52   -0.0075170937196426
    53   -0.0002572394353644
    54   -0.0000000000000000
    55    0.0001762088194623
    56   -0.0007188353081765
    57   -0.0014573283915290
    58    0.0059451002886112
    59    0.0012811195720655
    60   -0.0052262649804326
    61   -0.0001762088194610
    62    0.0007188353081750
    63    0.0014573283915321
    64   -0.0059451002886158
    65   -0.0012811195720717
    66    0.0052262649804476
Ene=  -0.10126842069473E+02
Spin= Alpha
Occup=       2.00000000000000
     1    0.4023174956378076
     2    0.0404777188251810
     3    0.0010523314140413
     4    0.0010523314140416
     5   -0.0000000000000000
     6   -0.0159032688855055
     7   -0.0025008396635332
     8   -0.0025008396635292
     9   -0.0000000000000000
    10    0.4023174956378143
    11    0.0404777188251827
    12   -0.0014375114447807
    13    0.0003851800307394
    14    0.0000000000000000
    15   -0.0159032688855128
    16    0.0034162105111733
    17   -0.0009153708476377
    18    0.0000000000000000
    19    0.4023174956385491
    20    0.0404777188252655
    21    0.0003851800307387
    22   -0.0014375114447790
    23   -0.0000000000000000
    24   -0.0159032688855865
    25   -0.0009153708476360
    26    0.0034162105111560
    27   -0.0000000000000000
    28    0.4023174956377809
    29    0.0404777188251781
    30   -0.0010523314140419
    31   -0.0010523314140409
    32   -0.0000000000000000
    33   -0.0159032688855038
    34    0.0025008396635369
    35    0.0025008396635256
    36   -0.0000000000000000
    37    0.4023174956380359
    38    0.0404777188252065
    39    0.0014375114447806
    40   -0.0003851800307389
    41    0.0000000000000000
    42   -0.0159032688855267
    43   -0.0034162105111731
    44    0.0009153708476354
    45    0.0000000000000000
    46    0.4023174956383546
    47    0.0404777188252446
    48   -0.0003851800307393
    49    0.0014375114447790
    50   -0.0000000000000000
    51   -0.0159032688855744
    52    0.0009153708476392
    53   -0.0034162105111559
    54   -0.0000000000000000
    55   -0.0015308940715763
    56    0.0074764220129124
    57   -0.0015308940715762
    58    0.0074764220129116
    59   -0.0015308940715780
    60    0.0074764220129166
    61   -0.0015308940715762
    62    0.0074764220129121
    63   -0.0015308940715768
    64    0.0074764220129142
    65   -0.0015308940715775
    66    0.0074764220129144
Ene=  -0.85212209840125E+00
Spin= Alpha
Occup=       2.00000000000000
     1   -0.0980774151176525
     2    0.1073548113284644
     3   -0.0423768512226832
     4   -0.0423768512226834
     5    0.0000000000000000
     6    0.1834184958577581
     7   -0.0091908396637508
     8   -0.0091908396637540
     9    0.0000000000000000
    10   -0.0980774151176508
    11    0.1073548113284640
    12    0.0578878553025792
    13   -0.0155110040798955
    14    0.0000000000000000
    15    0.1834184958577477
    16    0.0125549204627872
    17   -0.0033640807990392
    18    0.0000000000000000
    19   -0.0980774151176509
    20    0.1073548113284634
    21   -0.0155110040798951
    22    0.0578878553025797
    23    0.0000000000000000
    24    0.1834184958577501
    25   -0.0033640807990425
    26    0.0125549204627853
    27    0.0000000000000000
    28   -0.0980774151176513
    29    0.1073548113284623
    30    0.0423768512226829
    31    0.0423768512226823
    32    0.0000000000000000
    33    0.1834184958577708
    34    0.0091908396637640
    35    0.0091908396637668
    36    0.0000000000000000
    37   -0.0980774151176524
    38    0.1073548113284646
    39   -0.0578878553025796
    40    0.0155110040798963
    41    0.0000000000000000
    42    0.1834184958577695
    43   -0.0125549204628043
    44    0.0033640807990424
    45    0.0000000000000000
    46   -0.0980774151176522
    47    0.1073548113284643
    48    0.0155110040798964
    49   -0.0578878553025795
    50    0.0000000000000000
    51    0.1834184958577702
    52    0.0033640807990458
    53   -0.0125549204628024
    54    0.0000000000000000
    55    0.0339917579762279
    56   -0.0035436514007737
    57    0.0339917579762268
    58   -0.0035436514007788
    59    0.0339917579762269
    60   -0.0035436514007798
    61    0.0339917579762278
    62   -0.0035436514007671
    63    0.0339917579762279
    64   -0.0035436514007719
    65    0.0339917579762279
    66   -0.0035436514007734
Ene=  -0.74472063002383E+00
Spin= Alpha
Occup=       2.00000000000000
     1    0.0355138538582460
     2   -0.0378705940193811
     3   -0.0655255546686742
     4    0.0743210159782042
     5    0.0000000000000000
     6   -0.0832047573899635
     7   -0.0054440446125195
     8    0.0078165973319941
     9    0.0000000000000000
    10   -0.1332699102299738
    11    0.1421138546513112
    12    0.0294388829564609
    13    0.0196933319021052
    14    0.0000000000000000
    15    0.3122356304198305
    16    0.0067348929816567
    17    0.0008107415409718
    18    0.0000000000000000
    19    0.0977560563717269
    20   -0.1042432606319292
    21   -0.0653522980159191
    22   -0.0352344414993146
    23    0.0000000000000000
    24   -0.2290308730298654
    25   -0.0054218249057070
    26   -0.0062335999111788
    27    0.0000000000000000
    28   -0.0355138538582467
    29    0.0378705940193817
    30   -0.0655255546686739
    31    0.0743210159782044
    32    0.0000000000000000
    33    0.0832047573899645
    34   -0.0054440446125194
    35    0.0078165973319942
    36    0.0000000000000000
    37    0.1332699102299731
    38   -0.1421138546513106
    39    0.0294388829564606
    40    0.0196933319021053
    41    0.0000000000000000
    42   -0.3122356304198294
    43    0.0067348929816567
    44    0.0008107415409719
    45    0.0000000000000000
    46   -0.0977560563717273
    47    0.1042432606319298
    48   -0.0653522980159190
    49   -0.0352344414993149
    50    0.0000000000000000
    51    0.2290308730298665
    52   -0.0054218249057070
    53   -0.0062335999111789
    54    0.0000000000000000
    55   -0.0188692037765642
    56   -0.0036015189423323
    57    0.0708089047010011
    58    0.0135151230855409
    59   -0.0519397009244366
    60   -0.0099136041432086
    61    0.0188692037765644
    62    0.0036015189423323
    63   -0.0708089047010009
    64   -0.0135151230855409
    65    0.0519397009244368
    66    0.0099136041432086
Ene=  -0.74472063002383E+00
Spin= Alpha
Occup=       2.00000000000000
     1   -0.1333829040072847
     2    0.1422343468255571
     3   -0.0351344117242081
     4    0.0021004251500810
     5   -0.0000000000000000
     6    0.3125003614700119
     7   -0.0062207713574681
     8   -0.0026900602548074
     9   -0.0000000000000000
    10    0.0359355523761133
    11   -0.0383202769355888
    12    0.0194932723518912
    13    0.0970648627752162
    14   -0.0000000000000000
    15   -0.0841927471195751
    16    0.0007850844335507
    17    0.0094888773393674
    18   -0.0000000000000000
    19    0.0974473516311731
    20   -0.1039140698899702
    21    0.0744210457533117
    22    0.0022736818028350
    23   -0.0000000000000000
    24   -0.2283076143504399
    25    0.0078294258857020
    26   -0.0026678405479928
    27   -0.0000000000000000
    28    0.1333829040072859
    29   -0.1422343468255583
    30   -0.0351344117242086
    31    0.0021004251500805
    32   -0.0000000000000000
    33   -0.3125003614700139
    34   -0.0062207713574682
    35   -0.0026900602548075
    36   -0.0000000000000000
    37   -0.0359355523761130
    38    0.0383202769355875
    39    0.0194932723518919
    40    0.0970648627752160
    41   -0.0000000000000000
    42    0.0841927471195731
    43    0.0007850844335508
    44    0.0094888773393674
    45   -0.0000000000000000
    46   -0.0974473516311713
    47    0.1039140698899690
    48    0.0744210457533115
    49    0.0022736818028357
    50   -0.0000000000000000
    51    0.2283076143504377
    52    0.0078294258857020
    53   -0.0026678405479926
    54   -0.0000000000000000
    55    0.0708689405004971
    56    0.0135265819722878
    57   -0.0190932604305588
    58   -0.0036442840898748
    59   -0.0517756800699389
    60   -0.0098822978824129
    61   -0.0708689405004975
    62   -0.0135265819722878
    63    0.0190932604305584
    64    0.0036442840898749
    65    0.0517756800699385
    66    0.0098822978824130
Ene=  -0.60437801471645E+00
Spin= Alpha
Occup=       2.00000000000000
     1    0.0154631639394753
     2   -0.0161031732849840
     3   -0.1340451863422569
     4    0.1225564442235925
     5   -0.0000000000000001
     6   -0.0480384598007404
     7   -0.0473980657311608
     8    0.0455155879977694
     9    0.0000000000000003
    10    0.0856668819484536
    11   -0.0892125731965208
    12    0.0727845383600651
    13    0.0977450966585671
    14    0.0000000000000003
    15   -0.2661360301709967
    16    0.0177368073898137
    17    0.0377019916786792
    18    0.0000000000000003
    19   -0.1011300458879284
    20    0.1053157464815045
    21   -0.0521175812845348
    22   -0.0689690254088708
    23    0.0000000000000004
    24    0.3141744899717278
    25   -0.0215974020778875
    26   -0.0147996649568125
    27    0.0000000000000004
    28    0.0154631639394751
    29   -0.0161031732849842
    30    0.1340451863422567
    31   -0.1225564442235929
    32   -0.0000000000000000
    33   -0.0480384598007336
    34    0.0473980657311649
    35   -0.0455155879977679
    36    0.0000000000000007
    37    0.0856668819484535
    38   -0.0892125731965203
    39   -0.0727845383600648
    40   -0.0977450966585671
    41    0.0000000000000003
    42   -0.2661360301709937
    43   -0.0177368073898186
    44   -0.0377019916786780
    45    0.0000000000000000
    46   -0.1011300458879289
    47    0.1053157464815035
    48    0.0521175812845351
    49    0.0689690254088700
    50   -0.0000000000000000
    51    0.3141744899717365
    52    0.0215974020778908
    53    0.0147996649568083
    54   -0.0000000000000002
    55   -0.0151215926936520
    56   -0.0075500235392461
    57   -0.0837745561794496
    58   -0.0418275960712871
    59    0.0988961488730996
    60    0.0493776196105294
    61   -0.0151215926936515
    62   -0.0075500235392440
    63   -0.0837745561794489
    64   -0.0418275960712848
    65    0.0988961488730992
    66    0.0493776196105299
Ene=  -0.60437801471644E+00
Spin= Alpha
Occup=       2.00000000000000
     1   -0.1078472565701298
     2    0.1123109777311154
     3    0.0216681005747337
     4    0.0584597001644380
     5   -0.0000000000000000
     6    0.3350424350179567
     7   -0.0000963551486526
     8    0.0132256254516715
     9   -0.0000000000000000
    10    0.0673151210795344
    11   -0.0701012460118963
    12   -0.0031432469902928
    13   -0.1483700245378820
    14   -0.0000000000000000
    15   -0.2091237440551041
    16   -0.0079099514677320
    17   -0.0519092476693064
    18   -0.0000000000000000
    19    0.0405321354905962
    20   -0.0422097317192176
    21   -0.1698573690577307
    22   -0.0234679048932829
    23   -0.0000000000000000
    24   -0.1259186909628724
    25   -0.0604116081032412
    26   -0.0125750382015920
    27   -0.0000000000000000
    28   -0.1078472565701302
    29    0.1123109777311134
    30   -0.0216681005747330
    31   -0.0584597001644381
    32   -0.0000000000000000
    33    0.3350424350179739
    34    0.0000963551486581
    35   -0.0132256254516643
    36   -0.0000000000000000
    37    0.0673151210795342
    38   -0.0701012460118971
    39    0.0031432469902931
    40    0.1483700245378814
    41   -0.0000000000000000
    42   -0.2091237440550935
    43    0.0079099514677255
    44    0.0519092476693130
    45   -0.0000000000000000
    46    0.0405321354905960
    47   -0.0422097317192184
    48    0.1698573690577304
    49    0.0234679048932830
    50   -0.0000000000000000
    51   -0.1259186909628632
    52    0.0604116081032462
    53    0.0125750382015849
    54   -0.0000000000000000
    55    0.1054649807351473
    56    0.0526573558253913
    57   -0.0658281737859571
    58   -0.0328671900968526
    59   -0.0396368069491916
    60   -0.0197901657285409
    61    0.1054649807351475
    62    0.0526573558253927
    63   -0.0658281737859568
    64   -0.0328671900968500
    65   -0.0396368069491906
    66   -0.0197901657285393
Ene=  -0.52724588465933E+00
Spin= Alpha
Occup=       2.00000000000000
     1    0.0120712079382273
     2   -0.0088873999953636
     3   -0.1225593040530532
     4   -0.1225593040530546
     5    0.0000000000000005
     6   -0.0570541903109422
     7   -0.0756188024586067
     8   -0.0756188024586061
     9    0.0000000000000008
    10    0.0120712079382269
    11   -0.0088873999953624
    12    0.1674191228066148
    13   -0.0448598187535598
    14   -0.0000000000000000
    15   -0.0570541903109476
    16    0.1032972051622021
    17   -0.0276784027036027
    18    0.0000000000000001
    19    0.0120712079382280
    20   -0.0088873999953631
    21   -0.0448598187535596
    22    0.1674191228066156
    23   -0.0000000000000002
    24   -0.0570541903109525
    25   -0.0276784027036035
    26    0.1032972051621999
    27    0.0000000000000000
    28    0.0120712079382270
    29   -0.0088873999953640
    30    0.1225593040530552
    31    0.1225593040530562
    32   -0.0000000000000005
    33   -0.0570541903109390
    34    0.0756188024586086
    35    0.0756188024586097
    36   -0.0000000000000007
    37    0.0120712079382269
    38   -0.0088873999953624
    39   -0.1674191228066131
    40    0.0448598187535592
    41   -0.0000000000000005
    42   -0.0570541903109448
    43   -0.1032972051622036
    44    0.0276784027036032
    45   -0.0000000000000008
    46    0.0120712079382282
    47   -0.0088873999953628
    48    0.0448598187535579
    49   -0.1674191228066140
    50    0.0000000000000001
    51   -0.0570541903109521
    52    0.0276784027036016
    53   -0.1032972051622022
    54   -0.0000000000000001
    55   -0.1014132793020436
    56   -0.0637363394244479
    57   -0.1014132793020445
    58   -0.0637363394244569
    59   -0.1014132793020451
    60   -0.0637363394244568
    61   -0.1014132793020451
    62   -0.0637363394244504
    63   -0.1014132793020432
    64   -0.0637363394244547
    65   -0.1014132793020442
    66   -0.0637363394244550
Ene=  -0.46273988978750E+00
Spin= Alpha
Occup=       2.00000000000000
     1   -0.0637250023636536
     2    0.0632298817970928
     3    0.0800493377511256
     4    0.0800493377511257
     5   -0.0000000000000000
     6    0.2674762841803576
     7    0.0346909571324250
     8    0.0346909571324250
     9    0.0000000000000000
    10   -0.0637250023636533
    11    0.0632298817970927
    12   -0.1093494289241583
    13    0.0293000911730327
    14    0.0000000000000000
    15    0.2674762841803573
    16   -0.0473887287244895
    17    0.0126977715920645
    18    0.0000000000000000
    19   -0.0637250023636537
    20    0.0632298817970927
    21    0.0293000911730326
    22   -0.1093494289241584
    23    0.0000000000000000
    24    0.2674762841803576
    25    0.0126977715920645
    26   -0.0473887287244895
    27    0.0000000000000000
    28    0.0637250023636534
    29   -0.0632298817970926
    30    0.0800493377511257
    31    0.0800493377511255
    32    0.0000000000000000
    33   -0.2674762841803575
    34    0.0346909571324250
    35    0.0346909571324249
    36    0.0000000000000000
    37    0.0637250023636535
    38   -0.0632298817970927
    39   -0.1093494289241583
    40    0.0293000911730327
    41    0.0000000000000000
    42   -0.2674762841803576
    43   -0.0473887287244895
    44    0.0126977715920645
    45    0.0000000000000000
    46    0.0637250023636535
    47   -0.0632298817970925
    48    0.0293000911730328
    49   -0.1093494289241582
    50   -0.0000000000000000