----- GAMESS execution script 'rungms' -----
This job is running on host cpn-p27-17.compute.cbls.ccr.buffalo.edu
under operating system Linux at Fri Jun 30 08:39:42 EDT 2023
Available scratch disk space (Kbyte units) at beginning of the job is
Filesystem                      1K-blocks     Used Available Use% Mounted on
vast.cbls.ccr.buffalo.edu:/user  10742784 10579968    162816  99% /user
GAMESS temporary binary files will be written to /user/mrecio/work-dir/gam-scr
GAMESS supplementary output files will be written to /user/mrecio/work-dir/gam-scr
Copying input file tme_00_gms.inp to your run's scratch directory...
cp tme_00_gms.inp /user/mrecio/work-dir/gam-scr/tme_00_gms.F05
unset echo
 
Assuming a single but multicore node.
 
/projects/academic/cyberwksp21/Software/gamess-2018/qmmm-reks-2018-6.3/ddikick.x /projects/academic/cyberwksp21/Software/gamess-2018/qmmm-reks-2018-6.3/gamess.01.x tme_00_gms -ddi 1 12 cpn-p27-17.compute.cbls.ccr.buffalo.edu:cpus=12 -scr /user/mrecio/work-dir/gam-scr

 Distributed Data Interface kickoff program.
 Initiating 12 compute processes on 1 nodes to run the following command:
 /projects/academic/cyberwksp21/Software/gamess-2018/qmmm-reks-2018-6.3/gamess.01.x tme_00_gms 

          ******************************************************
          *         GAMESS VERSION = 30 SEP 2018 (R3)         *
          *             FROM IOWA STATE UNIVERSITY             *
          * M.W.SCHMIDT, K.K.BALDRIDGE, J.A.BOATZ, S.T.ELBERT, *
          *   M.S.GORDON, J.H.JENSEN, S.KOSEKI, N.MATSUNAGA,   *
          *          K.A.NGUYEN, S.J.SU, T.L.WINDUS,           *
          *       TOGETHER WITH M.DUPUIS, J.A.MONTGOMERY       *
          *         J.COMPUT.CHEM.  14, 1347-1363(1993)        *
          **************** 64 BIT INTEL VERSION ****************

  SINCE 1993, STUDENTS AND POSTDOCS WORKING AT IOWA STATE UNIVERSITY
  AND ALSO IN THEIR VARIOUS JOBS AFTER LEAVING ISU HAVE MADE IMPORTANT
  CONTRIBUTIONS TO THE CODE:
     IVANA ADAMOVIC, CHRISTINE AIKENS, YURI ALEXEEV, POOJA ARORA,
     ANDREY ASADCHEV, ROB BELL, PRADIPTA BANDYOPADHYAY, JONATHAN BENTZ,
     BRETT BODE, KURT BRORSEN, CALEB CARLIN, GALINA CHABAN, WEI CHEN,
     CHEOL HO CHOI, PAUL DAY, ALBERT DEFUSCO, NUWAN DESILVA, TIM DUDLEY,
     DMITRI FEDOROV, ALEX FINDLATER, GRAHAM FLETCHER, MARK FREITAG,
     KURT GLAESEMANN, ANASTASIA GUNINA,
     DAN KEMP, GRANT MERRILL, NORIYUKI MINEZAWA, JONATHAN MULLIN,
     TAKESHI NAGATA, SEAN NEDD, HEATHER NETZLOFF, BOSILJKA NJEGIC, RYAN OLSON,
     MIKE PAK, BUU PHAM,
     SPENCER PRUITT, LUKE ROSKOP, JIM SHOEMAKER, LYUDMILA SLIPCHENKO,
     TONY SMITH, SAROM SOK LEANG, JIE SONG, TETSUYA TAKETSUGU, SIMON WEBB,
     PENG XU, SOOHAENG YOO, FEDERICO ZAHARIEV

  ADDITIONAL CODE HAS BEEN PROVIDED BY COLLABORATORS IN OTHER GROUPS:
     IOWA STATE UNIVERSITY:
          JOE IVANIC, AARON WEST, LAIMUTIS BYTAUTAS, KLAUS RUEDENBERG
     UNIVERSITY OF TOKYO: KIMIHIKO HIRAO, TAKAHITO NAKAJIMA,
          TAKAO TSUNEDA, MUNEAKI KAMIYA, SUSUMU YANAGISAWA,
          KIYOSHI YAGI, MAHITO CHIBA, SEIKEN TOKURA, NAOAKI KAWAKAMI
     UNIVERSITY OF AARHUS: FRANK JENSEN
     UNIVERSITY OF IOWA: VISVALDAS KAIRYS, HUI LI
     NATIONAL INST. OF STANDARDS AND TECHNOLOGY: WALT STEVENS, DAVID GARMER
     UNIVERSITY OF PISA: BENEDETTA MENNUCCI, JACOPO TOMASI
     UNIVERSITY OF MEMPHIS: HENRY KURTZ, PRAKASHAN KORAMBATH
     UNIVERSITY OF ALBERTA: TOBY ZENG, MARIUSZ KLOBUKOWSKI
     UNIVERSITY OF NEW ENGLAND: MARK SPACKMAN
     MIE UNIVERSITY: HIROAKI UMEDA
     NAT. INST. OF ADVANCED INDUSTRIAL SCIENCE AND TECHNOLOGY: KAZUO KITAURA
     MICHIGAN STATE UNIVERSITY:
          KAROL KOWALSKI, MARTA WLOCH, JEFFREY GOUR, JESSE LUTZ,
          WEI LI, JUN SHEN, J. EMILIANO DEUSTUA, PIOTR PIECUCH
     UNIVERSITY OF MINNESOTA:
          YINAN SHU
     UNIVERSITY OF SILESIA: MONIKA MUSIAL, STANISLAW KUCHARSKI
     FACULTES UNIVERSITAIRES NOTRE-DAME DE LA PAIX:
          OLIVIER QUINET, BENOIT CHAMPAGNE
     UNIVERSITY OF CALIFORNIA - SANTA BARBARA: BERNARD KIRTMAN
     INSTITUTE FOR MOLECULAR SCIENCE:
          KAZUYA ISHIMURA, MICHIO KATOUDA, AND SHIGERU NAGASE
     UNIVERSITY OF NOTRE DAME: ANNA POMOGAEVA, DAN CHIPMAN
     KYUSHU UNIVERSITY:
          HARUYUKI NAKANO,
          FENG LONG GU, JACEK KORCHOWIEC, MARCIN MAKOWSKI, AND YURIKO AOKI,
          HIROTOSHI MORI AND EISAKU MIYOSHI
     PENNSYLVANIA STATE UNIVERSITY:
          TZVETELIN IORDANOV, CHET SWALINA, JONATHAN SKONE,
          SHARON HAMMES-SCHIFFER
     WASEDA UNIVERSITY:
          MASATO KOBAYASHI, TOMOKO AKAMA, TSUGUKI TOUMA,
          TAKESHI YOSHIKAWA, YASUHIRO IKABATA, JUNJI SEINO,
          YUYA NAKAJIMA, HIROMI NAKAI
     NANJING UNIVERSITY: SHUHUA LI
     UNIVERSITY OF NEBRASKA:
          PEIFENG SU, DEJUN SI, NANDUN THELLAMUREGE, YALI WANG, HUI LI
     UNIVERSITY OF ZURICH: ROBERTO PEVERATI, KIM BALDRIDGE
     N. COPERNICUS UNIVERSITY AND JACKSON STATE UNIVERSITY:
          MARIA BARYSZ
     UNIVERSITY OF COPENHAGEN: Jimmy Kromann, CASPER STEINMANN
     TOKYO INSTITUTE OF TECHNOLOGY: HIROYA NAKATA
     NAGOYA UNIVERSITY: YOSHIO NISHIMOTO, STEPHAN IRLE
     MOSCOW STATE UNIVERSITY: VLADIMIR MIRONOV


 PARALLEL VERSION RUNNING ON       12 PROCESSORS IN        1 NODES.

 EXECUTION OF GAMESS BEGUN Fri Jun 30 08:39:43 2023

            ECHO OF THE FIRST FEW INPUT CARDS -
 INPUT CARD> $contrl scftyp=reks runtyp=gradient dfttyp=bhhlyp icharg=0                     
 INPUT CARD>         maxit=200 mult=1                                                       
 INPUT CARD> $end                                                                           
 INPUT CARD> $dft sg1=.true. $end                                                           
 INPUT CARD> $scf                                                                           
 INPUT CARD> nconv=6                                                                        
 INPUT CARD> npunch=2                                                                       
 INPUT CARD> $end                                                                           
 INPUT CARD>$reks                                                                           
 INPUT CARD>   rexType=0 rexTarget=0 wpps=0.5 rexShift=0.4 rexDIIS=no                       
 INPUT CARD>$end                                                                            
 INPUT CARD> $basis gbasis=n31 ngauss=6 ndfunc=1 $end                                       
 INPUT CARD> $guess guess=moread norb=60 $end                                               
 INPUT CARD> $system timlim=999999100 mwords=700 $end                                       
 INPUT CARD> $data                                                                          
 INPUT CARD>Comment line                                                                    
 INPUT CARD>C1                                                                              
 INPUT CARD>Ti  22.0    -0.94423272     0.49932019     0.14134716                           
 INPUT CARD>Ti  22.0     1.47397015    -0.08254688    -0.00052800                           
 INPUT CARD>O   8.0     0.34153277     0.20963355     0.08659478                            
 INPUT CARD>O   8.0    -1.78053825     0.99802488     2.61560130                            
 INPUT CARD>O   8.0     2.59848354     0.00196281     1.85234255                            
 INPUT CARD>O   8.0     0.79026917    -1.45329720    -0.13403992                            
 INPUT CARD>Ti  22.0     0.62050930     1.33799709    -0.47836903                           
 INPUT CARD>O   8.0     0.01829727     0.11013312    -1.33644863                            
 INPUT CARD>Ti  22.0    -0.05913404    -1.43528754    -0.14248274                           
 INPUT CARD>O   8.0    -1.09967773    -1.41411403    -0.14898144                            
 INPUT CARD>O   8.0     0.20518597     1.50850963    -0.48756405                            
 INPUT CARD>O   8.0     0.93310457     1.21314739    -0.46051498                            
 INPUT CARD> $end                                                                           
 INPUT CARD> $VEC                                                                           
 INPUT CARD> 1  1-1.49056812e-05-1.12125865e-04 1.65233170e-05 9.71151980e-07-6.57380237e-06
 INPUT CARD> 1  2-8.67341954e-04-6.07960370e-05 1.43872531e-04-3.39616440e-05-2.95031571e-03
 INPUT CARD> 1  3 1.19866178e-03 9.59697982e-04-5.93979482e-04-5.20430744e-03-1.56166975e-03
 INPUT CARD> 1  4-2.41868669e-04 4.11450059e-04-4.99809303e-04-5.20668976e-04-4.57848498e-04
 INPUT CARD> 1  5 6.88133905e-05-2.12011147e-05 2.36531569e-05-1.17082755e-04-4.81098700e-04
 INPUT CARD> 1  6-5.12756644e-04 2.50678266e-04-2.11571043e-04-1.44605068e-04-2.58953739e-05
 INPUT CARD> 1  7-1.61302967e-04 1.20553398e-04 3.51353318e-04-2.14369118e-04-2.01675716e-04
 INPUT CARD> 1  8 3.66181201e-05-1.71931591e-04-8.13714835e-05-1.19173426e-04 4.47857286e-05
 INPUT CARD> 1  9 6.17417193e-05-5.59659428e-06-2.40788239e-05 9.60520796e-06 1.91670002e-03
 INPUT CARD> 1 10 2.39093691e-04 5.46709860e-04-2.05997202e-04-3.31163450e-03 2.10902613e-05
 INPUT CARD> 1 11 2.98350561e-03-1.13639174e-03-3.85743964e-03-2.45702737e-04-2.05564191e-03
 INPUT CARD> 1 12 7.31396708e-04 1.17078358e-03 1.59194887e-03 1.23995883e-03-3.18352560e-04
 INPUT CARD> 1 13 1.31419552e-04-1.41890251e-04 2.89516797e-04 1.43508843e-03-1.63888255e-05
 INPUT CARD> 1 14 1.05850144e-04-1.96084794e-04-7.71098175e-04 4.10023492e-04 3.97403246e-04
 INPUT CARD> 1 15 2.04717940e-04 8.04744233e-05 1.09387800e-05-5.50231977e-04-4.05987112e-04
 INPUT CARD> 1 16 1.32068309e-04-1.12452183e-04 3.43833607e-04-6.41046301e-05-5.90277530e-04
 INPUT CARD> 1 17-7.51910366e-06-7.01758872e-07 5.87959121e-05 2.43929180e-03-1.21627396e-03
 INPUT CARD> 1 18 2.72181924e-04-9.37947622e-04 1.52198760e-04-6.31677452e-04-2.90939473e-04
 INPUT CARD> 1 19-3.01140404e-04 5.23827135e-05 1.49662984e-04-4.91452173e-06-1.52795548e-05
  700000000 WORDS OF MEMORY AVAILABLE

     BASIS OPTIONS
     -------------
     GBASIS=N31          IGAUSS=       6      POLAR=POPN31  
     NDFUNC=       1     NFFUNC=       0     DIFFSP=       F
     NPFUNC=       0      DIFFS=       F     BASNAM=        


     RUN TITLE
     ---------
 Comment line                                                                    

 THE POINT GROUP OF THE MOLECULE IS C1      
 THE ORDER OF THE PRINCIPAL AXIS IS     0

 ATOM      ATOMIC                      COORDINATES (BOHR)
           CHARGE         X                   Y                   Z
 TI         22.0    -1.7843411094        0.9435783392        0.2671074015
 TI         22.0     2.7853996976       -0.1559909843       -0.0009977753
 O           8.0     0.6454033511        0.3961499673        0.1636404062
 O           8.0    -3.3647294032        1.8859935521        4.9427697501
 O           8.0     4.9104218742        0.0037091731        3.5004198549
 O           8.0     1.4933921878       -2.7463334867       -0.2532987202
 TI         22.0     1.1725925498        2.5284478725       -0.9039863877
 O           8.0     0.0345768266        0.2081214190       -2.5255217074
 TI         22.0    -0.1117471321       -2.7123001642       -0.2692533366
 O           8.0    -2.0780895845       -2.6722880321       -0.2815340989
 O           8.0     0.3877452598        2.8506698505       -0.9213624560
 O           8.0     1.7633119552        2.2925161498       -0.8702471254

          INTERNUCLEAR DISTANCES (ANGS.)
          ------------------------------

                1 TI         2 TI         3 O          4 O          5 O     

   1 TI      0.0000000    2.4912653 *  1.3191319 *  2.6589560 *  3.9655653  
   2 TI      2.4912653 *  0.0000000    1.1727635 *  4.3131882    2.1690554 *
   3 O       1.3191319 *  1.1727635 *  0.0000000    3.3942039    2.8731201 *
   4 O       2.6589560 *  4.3131882    3.3942039    0.0000000    4.5552756  
   5 O       3.9655653    2.1690554 *  2.8731201 *  4.5552756    0.0000000  
   6 O       2.6262234 *  1.5376049 *  1.7364857 *  4.4920549    3.0550182  
   7 TI      1.8803842 *  1.7247239 *  1.2923685 *  3.9310638    3.3361034  
   8 O       1.8060484 *  1.9851431 *  1.4626804 *  4.4320266    4.1033463  
   9 TI      2.1463146 *  2.0495041 *  1.7084425 *  4.0609444    3.6204900  
  10 O       1.9415675 *  2.9015122 *  2.1838361 *  3.7316086    4.4369999  
  11 O       1.6538307 *  2.0924814 *  1.4266492 *  3.7193186    3.6705203  
  12 O       2.0967076 *  1.4774800 *  1.2869834 *  4.1076303    3.0967346  

                6 O          7 TI         8 O          9 TI        10 O     

   1 TI      2.6262234 *  1.8803842 *  1.8060484 *  2.1463146 *  1.9415675 *
   2 TI      1.5376049 *  1.7247239 *  1.9851431 *  2.0495041 *  2.9015122 *
   3 O       1.7364857 *  1.2923685 *  1.4626804 *  1.7084425 *  2.1838361 *
   4 O       4.4920549    3.9310638    4.4320266    4.0609444    3.7316086  
   5 O       3.0550182    3.3361034    4.1033463    3.6204900    4.4369999  
   6 O       0.0000000    2.8175707 *  2.1180278 *  0.8496361 *  1.8904121 *
   7 TI      2.8175707 *  0.0000000    1.6144999 *  2.8750378 *  3.2621550  
   8 O       2.1180278 *  1.6144999 *  0.0000000    1.9544501 *  2.2323252 *
   9 TI      0.8496361 *  2.8750378 *  1.9544501 *  0.0000000    1.0407794 *
  10 O       1.8904121 *  3.2621550    2.2323252 *  1.0407794 *  0.0000000  
  11 O       3.0396713    0.4490574 *  1.6465082 *  2.9757164 *  3.2185457  
  12 O       2.6901514 *  0.3370787 *  1.6795156 *  2.8460305 *  3.3364292  

               11 O         12 O     

   1 TI      1.6538307 *  2.0967076 *
   2 TI      2.0924814 *  1.4774800 *
   3 O       1.4266492 *  1.2869834 *
   4 O       3.7193186    4.1076303  
   5 O       3.6705203    3.0967346  
   6 O       3.0396713    2.6901514 *
   7 TI      0.4490574 *  0.3370787 *
   8 O       1.6465082 *  1.6795156 *
   9 TI      2.9757164 *  2.8460305 *
  10 O       3.2185457    3.3364292  
  11 O       0.0000000    0.7860254 *
  12 O       0.7860254 *  0.0000000  

  * ... LESS THAN  3.000


     ATOMIC BASIS SET
     ----------------
 THE CONTRACTED PRIMITIVE FUNCTIONS HAVE BEEN UNNORMALIZED
 THE CONTRACTED BASIS FUNCTIONS ARE NOW NORMALIZED TO UNITY

  SHELL TYPE  PRIMITIVE        EXPONENT          CONTRACTION COEFFICIENT(S)

 TI        

      1   S       1         43152.9500000    0.001791871976
      1   S       2          6479.5710000    0.013723919819
      1   S       3          1475.6750000    0.067628299108
      1   S       4           415.6991000    0.233764196917
      1   S       5           133.0006000    0.481069593655
      1   S       6            45.2722200    0.346227995434

      2   L       7           874.6826000    0.002431008053    0.004017679296
      2   L       8           207.9785000    0.032330270707    0.031139662298
      2   L       9            66.8791800    0.124252002716    0.134907709955
      2   L      10            24.8734700   -0.039039050853    0.343167225322
      2   L      11             9.9684410   -0.617178913492    0.462576034134
      2   L      12             4.0638260   -0.447309709779    0.215460315899

      3   L      13            33.6436300   -0.002940357957   -0.006311620001
      3   L      14            10.8756500    0.071631028943   -0.026976380003
      3   L      15             4.6282250    0.252891496268    0.053168470005
      3   L      16             1.9501260   -0.296640095622    0.384554900038
      3   L      17             0.8094520   -0.743221489032    0.512766200050
      3   L      18             0.3204740   -0.185351997265    0.181113500018

      4   L      19             1.2241480    0.063514607166   -0.211207009897
      4   L      20             0.4842630    0.315140187469    0.077719983642
      4   L      21             0.0840960   -1.162594215945    0.989821446382

      5   L      22             0.0320360    1.000000000000    1.000000000000

      6   D      23            13.6908500    0.085894178803
      6   D      24             3.5131540    0.378467094726
      6   D      25             1.0404340    0.716123890021

      7   D      26             0.2869620    1.000000000000

      8   F      27             0.8000000    1.000000000000

 TI        

      9   S      28         43152.9500000    0.001791871976
      9   S      29          6479.5710000    0.013723919819
      9   S      30          1475.6750000    0.067628299108
      9   S      31           415.6991000    0.233764196917
      9   S      32           133.0006000    0.481069593655
      9   S      33            45.2722200    0.346227995434

     10   L      34           874.6826000    0.002431008053    0.004017679296
     10   L      35           207.9785000    0.032330270707    0.031139662298
     10   L      36            66.8791800    0.124252002716    0.134907709955
     10   L      37            24.8734700   -0.039039050853    0.343167225322
     10   L      38             9.9684410   -0.617178913492    0.462576034134
     10   L      39             4.0638260   -0.447309709779    0.215460315899

     11   L      40            33.6436300   -0.002940357957   -0.006311620001
     11   L      41            10.8756500    0.071631028943   -0.026976380003
     11   L      42             4.6282250    0.252891496268    0.053168470005
     11   L      43             1.9501260   -0.296640095622    0.384554900038
     11   L      44             0.8094520   -0.743221489032    0.512766200050
     11   L      45             0.3204740   -0.185351997265    0.181113500018

     12   L      46             1.2241480    0.063514607166   -0.211207009897
     12   L      47             0.4842630    0.315140187469    0.077719983642
     12   L      48             0.0840960   -1.162594215945    0.989821446382

     13   L      49             0.0320360    1.000000000000    1.000000000000

     14   D      50            13.6908500    0.085894178803
     14   D      51             3.5131540    0.378467094726
     14   D      52             1.0404340    0.716123890021

     15   D      53             0.2869620    1.000000000000

     16   F      54             0.8000000    1.000000000000

 O         

     17   S      55          5484.6716600    0.001831074430
     17   S      56           825.2349460    0.013950172200
     17   S      57           188.0469580    0.068445078098
     17   S      58            52.9645000    0.232714335992
     17   S      59            16.8975704    0.470192897984
     17   S      60             5.7996353    0.358520852987

     18   L      61            15.5396162   -0.110777549525    0.070874268231
     18   L      62             3.5999336   -0.148026262701    0.339752839147
     18   L      63             1.0137618    1.130767015354    0.727158577316

     19   L      64             0.2700058    1.000000000000    1.000000000000

     20   D      65             0.8000000    1.000000000000

 O         

     21   S      66          5484.6716600    0.001831074430
     21   S      67           825.2349460    0.013950172200
     21   S      68           188.0469580    0.068445078098
     21   S      69            52.9645000    0.232714335992
     21   S      70            16.8975704    0.470192897984
     21   S      71             5.7996353    0.358520852987

     22   L      72            15.5396162   -0.110777549525    0.070874268231
     22   L      73             3.5999336   -0.148026262701    0.339752839147
     22   L      74             1.0137618    1.130767015354    0.727158577316

     23   L      75             0.2700058    1.000000000000    1.000000000000

     24   D      76             0.8000000    1.000000000000

 O         

     25   S      77          5484.6716600    0.001831074430
     25   S      78           825.2349460    0.013950172200
     25   S      79           188.0469580    0.068445078098
     25   S      80            52.9645000    0.232714335992
     25   S      81            16.8975704    0.470192897984
     25   S      82             5.7996353    0.358520852987

     26   L      83            15.5396162   -0.110777549525    0.070874268231
     26   L      84             3.5999336   -0.148026262701    0.339752839147
     26   L      85             1.0137618    1.130767015354    0.727158577316

     27   L      86             0.2700058    1.000000000000    1.000000000000

     28   D      87             0.8000000    1.000000000000

 O         

     29   S      88          5484.6716600    0.001831074430
     29   S      89           825.2349460    0.013950172200
     29   S      90           188.0469580    0.068445078098
     29   S      91            52.9645000    0.232714335992
     29   S      92            16.8975704    0.470192897984
     29   S      93             5.7996353    0.358520852987

     30   L      94            15.5396162   -0.110777549525    0.070874268231
     30   L      95             3.5999336   -0.148026262701    0.339752839147
     30   L      96             1.0137618    1.130767015354    0.727158577316

     31   L      97             0.2700058    1.000000000000    1.000000000000

     32   D      98             0.8000000    1.000000000000

 TI        

     33   S      99         43152.9500000    0.001791871976
     33   S     100          6479.5710000    0.013723919819
     33   S     101          1475.6750000    0.067628299108
     33   S     102           415.6991000    0.233764196917
     33   S     103           133.0006000    0.481069593655
     33   S     104            45.2722200    0.346227995434

     34   L     105           874.6826000    0.002431008053    0.004017679296
     34   L     106           207.9785000    0.032330270707    0.031139662298
     34   L     107            66.8791800    0.124252002716    0.134907709955
     34   L     108            24.8734700   -0.039039050853    0.343167225322
     34   L     109             9.9684410   -0.617178913492    0.462576034134
     34   L     110             4.0638260   -0.447309709779    0.215460315899

     35   L     111            33.6436300   -0.002940357957   -0.006311620001
     35   L     112            10.8756500    0.071631028943   -0.026976380003
     35   L     113             4.6282250    0.252891496268    0.053168470005
     35   L     114             1.9501260   -0.296640095622    0.384554900038
     35   L     115             0.8094520   -0.743221489032    0.512766200050
     35   L     116             0.3204740   -0.185351997265    0.181113500018

     36   L     117             1.2241480    0.063514607166   -0.211207009897
     36   L     118             0.4842630    0.315140187469    0.077719983642
     36   L     119             0.0840960   -1.162594215945    0.989821446382

     37   L     120             0.0320360    1.000000000000    1.000000000000

     38   D     121            13.6908500    0.085894178803
     38   D     122             3.5131540    0.378467094726
     38   D     123             1.0404340    0.716123890021

     39   D     124             0.2869620    1.000000000000

     40   F     125             0.8000000    1.000000000000

 O         

     41   S     126          5484.6716600    0.001831074430
     41   S     127           825.2349460    0.013950172200
     41   S     128           188.0469580    0.068445078098
     41   S     129            52.9645000    0.232714335992
     41   S     130            16.8975704    0.470192897984
     41   S     131             5.7996353    0.358520852987

     42   L     132            15.5396162   -0.110777549525    0.070874268231
     42   L     133             3.5999336   -0.148026262701    0.339752839147
     42   L     134             1.0137618    1.130767015354    0.727158577316

     43   L     135             0.2700058    1.000000000000    1.000000000000

     44   D     136             0.8000000    1.000000000000

 TI        

     45   S     137         43152.9500000    0.001791871976
     45   S     138          6479.5710000    0.013723919819
     45   S     139          1475.6750000    0.067628299108
     45   S     140           415.6991000    0.233764196917
     45   S     141           133.0006000    0.481069593655
     45   S     142            45.2722200    0.346227995434

     46   L     143           874.6826000    0.002431008053    0.004017679296
     46   L     144           207.9785000    0.032330270707    0.031139662298
     46   L     145            66.8791800    0.124252002716    0.134907709955
     46   L     146            24.8734700   -0.039039050853    0.343167225322
     46   L     147             9.9684410   -0.617178913492    0.462576034134
     46   L     148             4.0638260   -0.447309709779    0.215460315899

     47   L     149            33.6436300   -0.002940357957   -0.006311620001
     47   L     150            10.8756500    0.071631028943   -0.026976380003
     47   L     151             4.6282250    0.252891496268    0.053168470005
     47   L     152             1.9501260   -0.296640095622    0.384554900038
     47   L     153             0.8094520   -0.743221489032    0.512766200050
     47   L     154             0.3204740   -0.185351997265    0.181113500018

     48   L     155             1.2241480    0.063514607166   -0.211207009897
     48   L     156             0.4842630    0.315140187469    0.077719983642
     48   L     157             0.0840960   -1.162594215945    0.989821446382

     49   L     158             0.0320360    1.000000000000    1.000000000000

     50   D     159            13.6908500    0.085894178803
     50   D     160             3.5131540    0.378467094726
     50   D     161             1.0404340    0.716123890021

     51   D     162             0.2869620    1.000000000000

     52   F     163             0.8000000    1.000000000000

 O         

     53   S     164          5484.6716600    0.001831074430
     53   S     165           825.2349460    0.013950172200
     53   S     166           188.0469580    0.068445078098
     53   S     167            52.9645000    0.232714335992
     53   S     168            16.8975704    0.470192897984
     53   S     169             5.7996353    0.358520852987

     54   L     170            15.5396162   -0.110777549525    0.070874268231
     54   L     171             3.5999336   -0.148026262701    0.339752839147
     54   L     172             1.0137618    1.130767015354    0.727158577316

     55   L     173             0.2700058    1.000000000000    1.000000000000

     56   D     174             0.8000000    1.000000000000

 O         

     57   S     175          5484.6716600    0.001831074430
     57   S     176           825.2349460    0.013950172200
     57   S     177           188.0469580    0.068445078098
     57   S     178            52.9645000    0.232714335992
     57   S     179            16.8975704    0.470192897984
     57   S     180             5.7996353    0.358520852987

     58   L     181            15.5396162   -0.110777549525    0.070874268231
     58   L     182             3.5999336   -0.148026262701    0.339752839147
     58   L     183             1.0137618    1.130767015354    0.727158577316

     59   L     184             0.2700058    1.000000000000    1.000000000000

     60   D     185             0.8000000    1.000000000000

 O         

     61   S     186          5484.6716600    0.001831074430
     61   S     187           825.2349460    0.013950172200
     61   S     188           188.0469580    0.068445078098
     61   S     189            52.9645000    0.232714335992
     61   S     190            16.8975704    0.470192897984
     61   S     191             5.7996353    0.358520852987

     62   L     192            15.5396162   -0.110777549525    0.070874268231
     62   L     193             3.5999336   -0.148026262701    0.339752839147
     62   L     194             1.0137618    1.130767015354    0.727158577316

     63   L     195             0.2700058    1.000000000000    1.000000000000

     64   D     196             0.8000000    1.000000000000

 TOTAL NUMBER OF BASIS SET SHELLS             =   64
 NUMBER OF CARTESIAN GAUSSIAN BASIS FUNCTIONS =  276
 NUMBER OF ELECTRONS                          =  152
 CHARGE OF MOLECULE                           =    0
 SPIN MULTIPLICITY                            =    1
 NUMBER OF OCCUPIED ORBITALS (ALPHA)          =   76
 NUMBER OF OCCUPIED ORBITALS (BETA )          =   76
 TOTAL NUMBER OF ATOMS                        =   12
 THE NUCLEAR REPULSION ENERGY IS     3020.9183229641
 THE NUCLEAR REPULSION ENERGY IS     3020.9183229641

     STANDARD GRID ONE (SG-1) PRUNED GRID OPTIONS
     -------------------------------------------
     DFTTYP=BHHLYP  
     GRID HAS 50 RADIAL POINTS AND AT MOST
      194 ANGULAR POINTS, BEFORE PRUNING
     SWOFF =    5.00E-03 (PURE SCF -> DFT)
     COARSE GRID SWITCHING IS NOT AVAILABLE
     THRESH=    0.00E+00 GTHRE=    1.00E+00

 GRIMME'S EMPIRICAL DISPERSION CORRECTION= F

     $CONTRL OPTIONS
     ---------------
 SCFTYP=REKS         RUNTYP=GRADIENT     EXETYP=RUN     
 MPLEVL=       0     CITYP =NONE         CCTYP =NONE         VBTYP =NONE    
 DFTTYP=BHHLYP       TDDFT =NONE    
 MULT  =       1     ICHARG=       0     NZVAR =       0     COORD =UNIQUE  
 PP    =NONE         RELWFN=NONE         LOCAL =NONE         NUMGRD=       F
 ISPHER=      -1     NOSYM =       0     MAXIT =     200     UNITS =ANGS    
 PLTORB=       F     MOLPLT=       F     AIMPAC=       F     FRIEND=        
 NPRINT=       7     IREST =       0     GEOM  =INPUT   
 NORMF =       0     NORMP =       0     ITOL  =      20     ICUT  =       9
 INTTYP=BEST         GRDTYP=BEST         QMTTOL= 1.0E-06

     $SYSTEM OPTIONS
     ---------------
  REPLICATED MEMORY=   700000000 WORDS (ON EVERY NODE).
 DISTRIBUTED MEMDDI=           0 MILLION WORDS IN AGGREGATE,
 MEMDDI DISTRIBUTED OVER  12 PROCESSORS IS           0 WORDS/PROCESSOR.
 TOTAL MEMORY REQUESTED ON EACH PROCESSOR=   700000000 WORDS.
 TIMLIM=   999999100.00 MINUTES, OR  694443.8 DAYS.
 PARALL= T  BALTYP=  DLB     KDIAG=    0  COREFL= F
 MXSEQ2=     300 MXSEQ3=     150  mem10=         0

          ----------------
          PROPERTIES INPUT
          ----------------

     MOMENTS            FIELD           POTENTIAL          DENSITY
 IEMOM =       1   IEFLD =       0   IEPOT =       0   IEDEN =       0
 WHERE =COMASS     WHERE =NUCLEI     WHERE =NUCLEI     WHERE =NUCLEI  
 OUTPUT=BOTH       OUTPUT=BOTH       OUTPUT=BOTH       OUTPUT=BOTH    
 IEMINT=       0   IEFINT=       0                     IEDINT=       0
                                                       MORB  =       0
          EXTRAPOLATION IN EFFECT
          DIIS IN EFFECT
 ORBITAL PRINTING OPTION: NPREO=     1   276     2     1

 =====> REKS control string found <=====
 $REKS |   REXTYPE=0 REXTARGET=0 WPPS=0.5 REXSHIFT=0.4 REXDIIS=NO |$END

 ======> set rexType to   0
 ======> set rexTarget to   0
 ======> set WPPS to    0.50000000
 ======> set REXSHIFT to    0.40000000
 ======> set REXDIIS to F

 =====> End of REKS control string <=====

     -------------------------------
     INTEGRAL TRANSFORMATION OPTIONS
     -------------------------------
     NWORD  =            0
     CUTOFF = 1.0E-09     MPTRAN =       0
     DIRTRF =       F     AOINTS =DUP     

          ----------------------
          INTEGRAL INPUT OPTIONS
          ----------------------
 NOPK  =       1 NORDER=       0 SCHWRZ=       T

     ------------------------------------------
     THE POINT GROUP IS C1 , NAXIS= 0, ORDER= 1
     ------------------------------------------

     DIMENSIONS OF THE SYMMETRY SUBSPACES ARE
 A   =  276

 ..... DONE SETTING UP THE RUN .....
 CPU     0: STEP CPU TIME=     0.37 TOTAL CPU TIME=          0.4 (      0.0 MIN)
 TOTAL WALL CLOCK TIME=          0.4 SECONDS, CPU UTILIZATION IS    88.10%

                    --------------------------------
                    SINGLE POINT ENERGY AND GRADIENT
                    --------------------------------

          ********************
          1 ELECTRON INTEGRALS
          ********************
 ...... END OF ONE-ELECTRON INTEGRALS ......
 CPU     0: STEP CPU TIME=     0.02 TOTAL CPU TIME=          0.4 (      0.0 MIN)
 TOTAL WALL CLOCK TIME=          0.5 SECONDS, CPU UTILIZATION IS    86.67%

          -------------
          GUESS OPTIONS
          -------------
          GUESS =MOREAD            NORB  =      60          NORDER=       0
          MIX   =       F          PRTMO =       F          PUNMO =       F
          TOLZ  = 1.0E-08          TOLE  = 1.0E-05
          SYMDEN=       F          PURIFY=       F

 INITIAL GUESS ORBITALS GENERATED BY MOREAD   ROUTINE.

 SYMMETRIES FOR INITIAL GUESS ORBITALS FOLLOW.   BOTH SET(S).
    76 ORBITALS ARE OCCUPIED (   44 CORE ORBITALS).
     1=A        2=A        3=A        4=A        5=A        6=A        7=A   
     8=A        9=A       10=A       11=A       12=A       13=A       14=A   
    15=A       16=A       17=A       18=A       19=A       20=A       21=A   
    22=A       23=A       24=A       25=A       26=A       27=A       28=A   
    29=A       30=A       31=A       32=A       33=A       34=A       35=A   
    36=A       37=A       38=A       39=A       40=A       41=A       42=A   
    43=A       44=A       45=A       46=A       47=A       48=A       49=A   
    50=A       51=A       52=A       53=A       54=A       55=A       56=A   
    57=A       58=A       59=A       60=A       61=A       62=A       63=A   
    64=A       65=A       66=A       67=A       68=A       69=A       70=A   
    71=A       72=A       73=A       74=A       75=A       76=A       77=A   
    78=A       79=A       80=A       81=A       82=A       83=A       84=A   
    85=A       86=A       87=A       88=A       89=A       90=A       91=A   
    92=A       93=A       94=A       95=A       96=A       97=A       98=A   
    99=A      100=A      101=A      102=A      103=A      104=A      105=A   
   106=A      107=A      108=A      109=A      110=A      111=A      112=A   
   113=A      114=A      115=A      116=A      117=A      118=A      119=A   
   120=A      121=A      122=A      123=A      124=A      125=A      126=A   
   127=A      128=A      129=A      130=A      131=A      132=A      133=A   
   134=A      135=A      136=A      137=A      138=A      139=A      140=A   
   141=A      142=A      143=A      144=A      145=A      146=A      147=A   
   148=A      149=A      150=A      151=A      152=A      153=A      154=A   
   155=A      156=A      157=A      158=A      159=A      160=A      161=A   
   162=A      163=A      164=A      165=A      166=A      167=A      168=A   
   169=A      170=A      171=A      172=A      173=A      174=A      175=A   
   176=A      177=A      178=A      179=A      180=A      181=A      182=A   
   183=A      184=A      185=A      186=A      187=A      188=A      189=A   
   190=A      191=A      192=A      193=A      194=A      195=A      196=A   
   197=A      198=A      199=A      200=A      201=A      202=A      203=A   
   204=A      205=A      206=A      207=A      208=A      209=A      210=A   
   211=A      212=A      213=A      214=A      215=A      216=A      217=A   
   218=A      219=A      220=A      221=A      222=A      223=A      224=A   
   225=A      226=A      227=A      228=A      229=A      230=A      231=A   
   232=A      233=A      234=A      235=A      236=A      237=A      238=A   
   239=A      240=A      241=A      242=A      243=A      244=A      245=A   
   246=A      247=A      248=A      249=A      250=A      251=A      252=A   
   253=A      254=A      255=A      256=A      257=A      258=A      259=A   
   260=A      261=A      262=A      263=A      264=A      265=A      266=A   
   267=A      268=A      269=A      270=A      271=A      272=A      273=A   
   274=A      275=A      276=A   
 ...... END OF INITIAL ORBITAL SELECTION ......
 CPU     0: STEP CPU TIME=     0.08 TOTAL CPU TIME=          0.5 (      0.0 MIN)
 TOTAL WALL CLOCK TIME=          0.6 SECONDS, CPU UTILIZATION IS    83.93%

                    ----------------------
                    AO INTEGRAL TECHNOLOGY
                    ----------------------
     S,P,L SHELL ROTATED AXIS INTEGRALS, REPROGRAMMED BY
        KAZUYA ISHIMURA (IMS) AND JOSE SIERRA (SYNSTAR).
     S,P,D,L SHELL ROTATED AXIS INTEGRALS PROGRAMMED BY
        KAZUYA ISHIMURA (INSTITUTE FOR MOLECULAR SCIENCE).
     S,P,D,F,G SHELL TO TOTAL QUARTET ANGULAR MOMENTUM SUM 5,
        ERIC PROGRAM BY GRAHAM FLETCHER (ELORET AND NASA ADVANCED
        SUPERCOMPUTING DIVISION, AMES RESEARCH CENTER).
     S,P,D,F,G,L SHELL GENERAL RYS QUADRATURE PROGRAMMED BY
        MICHEL DUPUIS (PACIFIC NORTHWEST NATIONAL LABORATORY).

          --------------------
          2 ELECTRON INTEGRALS
          --------------------

 THE -PK- OPTION IS OFF, THE INTEGRALS ARE NOT IN SUPERMATRIX FORM.
 STORING   15000 INTEGRALS/RECORD ON DISK, USING 16 BYTES/INTEGRAL.
 TWO ELECTRON INTEGRAL EVALUATION REQUIRES  101180 WORDS OF MEMORY.
 SCHWARZ INEQUALITY OVERHEAD:     37632 INTEGRALS, T=        0.00
 II,JST,KST,LST =  1  1  1  1 NREC =         1 INTLOC =    1
 II,JST,KST,LST =  2  1  1  1 NREC =         1 INTLOC =    1
 II,JST,KST,LST =  3  1  1  1 NREC =         1 INTLOC =    1
 II,JST,KST,LST =  4  1  1  1 NREC =         1 INTLOC =    1
 II,JST,KST,LST =  5  1  1  1 NREC =         1 INTLOC =    1
 II,JST,KST,LST =  6  1  1  1 NREC =         1 INTLOC =    1
 II,JST,KST,LST =  7  1  1  1 NREC =         1 INTLOC =    1
 II,JST,KST,LST =  8  1  1  1 NREC =         1 INTLOC =    1
 II,JST,KST,LST =  9  1  1  1 NREC =         1 INTLOC = 4645
 II,JST,KST,LST = 10  1  1  1 NREC =         1 INTLOC = 4645
 II,JST,KST,LST = 11  1  1  1 NREC =         1 INTLOC = 4645
 II,JST,KST,LST = 12  1  1  1 NREC =         1 INTLOC = 4645
 II,JST,KST,LST = 13  1  1  1 NREC =         2 INTLOC = 4575
 II,JST,KST,LST = 14  1  1  1 NREC =         2 INTLOC = 4575
 II,JST,KST,LST = 15  1  1  1 NREC =        10 INTLOC =13000
 II,JST,KST,LST = 16  1  1  1 NREC =        16 INTLOC = 3277
 II,JST,KST,LST = 17  1  1  1 NREC =        18 INTLOC = 7114
 II,JST,KST,LST = 18  1  1  1 NREC =        24 INTLOC = 3092
 II,JST,KST,LST = 19  1  1  1 NREC =        24 INTLOC = 3092
 II,JST,KST,LST = 20  1  1  1 NREC =        39 INTLOC = 5755
 II,JST,KST,LST = 21  1  1  1 NREC =        55 INTLOC =  779
 II,JST,KST,LST = 22  1  1  1 NREC =        55 INTLOC =  779
 II,JST,KST,LST = 23  1  1  1 NREC =        56 INTLOC = 8741
 II,JST,KST,LST = 24  1  1  1 NREC =        70 INTLOC =11166
 II,JST,KST,LST = 25  1  1  1 NREC =        79 INTLOC = 5965
 II,JST,KST,LST = 26  1  1  1 NREC =        79 INTLOC = 5965
 II,JST,KST,LST = 27  1  1  1 NREC =        91 INTLOC =14193
 II,JST,KST,LST = 28  1  1  1 NREC =       110 INTLOC =12702
 II,JST,KST,LST = 29  1  1  1 NREC =       122 INTLOC = 6049
 II,JST,KST,LST = 30  1  1  1 NREC =       126 INTLOC = 9036
 II,JST,KST,LST = 31  1  1  1 NREC =       143 INTLOC =12917
 II,JST,KST,LST = 32  1  1  1 NREC =       169 INTLOC = 5561
 II,JST,KST,LST = 33  1  1  1 NREC =       189 INTLOC =  728
 II,JST,KST,LST = 34  1  1  1 NREC =       194 INTLOC = 3861
 II,JST,KST,LST = 35  1  1  1 NREC =       214 INTLOC =  126
 II,JST,KST,LST = 36  1  1  1 NREC =       242 INTLOC =12063
 II,JST,KST,LST = 37  1  1  1 NREC =       242 INTLOC =12063
 II,JST,KST,LST = 38  1  1  1 NREC =       304 INTLOC =11629
 II,JST,KST,LST = 39  1  1  1 NREC =       334 INTLOC =11937
 II,JST,KST,LST = 40  1  1  1 NREC =       427 INTLOC = 7929
 II,JST,KST,LST = 41  1  1  1 NREC =       602 INTLOC = 1701
 II,JST,KST,LST = 42  1  1  1 NREC =       602 INTLOC = 1701
 II,JST,KST,LST = 43  1  1  1 NREC =       634 INTLOC =  368
 II,JST,KST,LST = 44  1  1  1 NREC =       744 INTLOC = 9967
 II,JST,KST,LST = 45  1  1  1 NREC =       834 INTLOC = 1681
 II,JST,KST,LST = 46  1  1  1 NREC =       845 INTLOC =10637
 II,JST,KST,LST = 47  1  1  1 NREC =       900 INTLOC =10430
 II,JST,KST,LST = 48  1  1  1 NREC =       981 INTLOC =12038
 II,JST,KST,LST = 49  1  1  1 NREC =      1044 INTLOC = 8112
 II,JST,KST,LST = 50  1  1  1 NREC =      1175 INTLOC = 6363
 II,JST,KST,LST = 51  1  1  1 NREC =      1305 INTLOC = 4413
 II,JST,KST,LST = 52  1  1  1 NREC =      1384 INTLOC = 7430
 II,JST,KST,LST = 53  1  1  1 NREC =      1588 INTLOC = 4085
 II,JST,KST,LST = 54  1  1  1 NREC =      1588 INTLOC = 4085
 II,JST,KST,LST = 55  1  1  1 NREC =      1600 INTLOC =12063
 II,JST,KST,LST = 56  1  1  1 NREC =      1702 INTLOC =11995
 II,JST,KST,LST = 57  1  1  1 NREC =      1864 INTLOC =13096
 II,JST,KST,LST = 58  1  1  1 NREC =      1900 INTLOC = 7455
 II,JST,KST,LST = 59  1  1  1 NREC =      2017 INTLOC =  992
 II,JST,KST,LST = 60  1  1  1 NREC =      2133 INTLOC = 8130
 II,JST,KST,LST = 61  1  1  1 NREC =      2249 INTLOC =12987
 II,JST,KST,LST = 62  1  1  1 NREC =      2312 INTLOC =12993
 II,JST,KST,LST = 63  1  1  1 NREC =      2426 INTLOC = 3645
 II,JST,KST,LST = 64  1  1  1 NREC =      2589 INTLOC = 9970
 SCHWARZ INEQUALITY TEST SKIPPED      604268 INTEGRAL BLOCKS.
 TOTAL NUMBER OF NONZERO TWO-ELECTRON INTEGRALS =           562108692
      37481 INTEGRAL RECORDS WERE STORED ON DISK FILE  8.
  ...... END OF TWO-ELECTRON INTEGRALS .....
 CPU     0: STEP CPU TIME=     4.23 TOTAL CPU TIME=          4.7 (      0.1 MIN)
 TOTAL WALL CLOCK TIME=          4.9 SECONDS, CPU UTILIZATION IS    96.31%

 ================================================================================

          Performing a ‰M;SA-REKS(2,2) calculation for the averaged state

          Weights: WPPS =    0.500000, WOSS =    0.500000

          Applying 0.400 orbital eigenvalue shift, not using DIIS

 ================================================================================

          -------------------
          SA-REKS(2,2)-BHHLYP
          -------------------

     NUCLEAR ENERGY =      3020.9183229641
     MAXIT =200     NPUNCH=  2     MULT=  1
     EXTRAP=F  DAMP=F  SHIFT=F  RSTRCT=F  DIIS=F  SOSCF=F
         DENSITY MATRIX CONVERGENCE THRESHOLD=  1.00E-06
            FOCK MATRIX CONVERGENCE THRESHOLD=  1.00E-06
     COARSE -> FINE DFT GRID SWITCH THRESHOLD=  3.00E-04 (SWITCH IN $DFT)
                   HF -> DFT SWITCH THRESHOLD=  0.00E+00 (SWOFF IN $DFT)
     MEMORY REQUIRED FOR REKS ITERS=   2569696 WORDS.

     EXCHANGE FUNCTIONAL   =B88&HFX   
     CORRELATION FUNCTIONAL=LYP88     
     DFT THRESHOLD         =.859E-08
 FOR AN EULER-MACLAURIN QUADRATURE USING  50 RADIAL POINTS:
 SMALLEST GAUSSIAN PRIMITIVE EXPONENT=        0.0320360000 OF TYPE -P-
 ON ATOM NUMBER   1 HAS RADIAL NORMALIZATION=  1.000000
  LARGEST GAUSSIAN PRIMITIVE EXPONENT=    43152.9500000000 OF TYPE -S-
 ON ATOM NUMBER   1 HAS RADIAL NORMALIZATION=  0.998705

          **************************************************
          *                                                *
          * WARNING: QUESTIONABLE SELECTION OF RADIAL GRID *
          *                                                *
          **************************************************

 THIS RUN HAS REQUESTED NRAD=  50 IN $DFT OR $TDDFT
 ATOM=    1 HAS LARGE EXPONENT=         43152.949999999997090
 RECOMMEND NRAD ABOVE  50 FOR ZETA'S ABOVE 1E+4
 RECOMMEND NRAD ABOVE  75 FOR ZETA'S ABOVE 1E+5
 RECOMMEND NRAD ABOVE 125 FOR ZETA'S ABOVE 1E+6
 ====================================================================================================================

 ITER EX     NR/2           TOTAL ENERGY    OFFDIAG FOCK      E CHANGE    DENSITY CHANGE  DIIS ERROR     VIR. SHIFT

 ====================================================================================================================
 DNR =   0.000000000<0.5; Swap the active orbitals
   1  0   1.000000000    -2240.6152815458   8.014575165 -2240.61528154585275.170039457   0.000000000     0.400000000
 DNR =   0.000000000<0.5; Swap the active orbitals
   2  1   1.000000000    -2042.3530518638   2.609290395   198.26222968201155.414007542   0.000000000     0.400000000
   3  2   1.000000000    -2179.0088559162   3.181929256  -136.65580405241156.515425470   0.000000000     0.400000000
   4  3   1.000000000    -1954.9318240278   2.981177242   224.0770318884 956.307559285   0.000000000     0.400000000
   5  4   0.999999867    -2213.5685573164   2.897166688  -258.6367332886 956.294317008   0.000000000     0.400000000
 DNR =   0.000000000<0.5; Swap the active orbitals
   6  5   1.000000000    -1961.8997067723   6.635685573   251.6688505441 948.092022873   0.000000000     0.400000000
 DNR =   0.000000000<0.5; Swap the active orbitals
   7  6   1.000000000    -2216.0274707788   3.209450825  -254.1277640066 948.290075985   0.000000000     0.400000000
 DNR =   0.000000000<0.5; Swap the active orbitals
   8  7   1.000000000    -1969.4965191593   2.582247056   246.5309516195 945.546883563   0.000000000     0.400000000
 DNR =   0.000000000<0.5; Swap the active orbitals
   9  8   1.000000000    -2216.5641333274   3.424413821  -247.0676141681 945.544724733   0.000000000     0.400000000
 DNR =   0.000000000<0.5; Swap the active orbitals
  10  9   1.000000000    -1969.7274223264   2.564938522   246.8367110011 945.342832500   0.000000000     0.400000000
 DNR =   0.000000000<0.5; Swap the active orbitals
  11 10   1.000000000    -2216.6081042701   3.437519666  -246.8806819437 945.342117864   0.000000000     0.400000000
 DNR =   0.000000000<0.5; Swap the active orbitals
  12 11   1.000000000    -1969.7309463508   2.563097875   246.8771579193 945.330299657   0.000000000     0.400000000
 DNR =   0.000000000<0.5; Swap the active orbitals
  13 12   1.000000000    -2216.6111746948   3.438418455  -246.8802283439 945.330243226   0.000000000     0.400000000
 DNR =   0.000000000<0.5; Swap the active orbitals
  14 13   1.000000000    -1969.7310306277   2.562928412   246.8801440671 945.329535632   0.000000000     0.400000000
 DNR =   0.000000000<0.5; Swap the active orbitals
  15 14   1.000000000    -2216.6113908512   3.438480300  -246.8803602236 945.329531399   0.000000000     0.400000000
 DNR =   0.000000000<0.5; Swap the active orbitals
  16 15   1.000000000    -1969.7310319686   2.562913067   246.8803588826 945.329490980   0.000000000     0.400000000
 DNR =   0.000000000<0.5; Swap the active orbitals
  17 16   1.000000000    -2216.6114062600   3.438484517  -246.8803742914 945.329490629   0.000000000     0.400000000
 DNR =   0.000000000<0.5; Swap the active orbitals
  18 17   1.000000000    -1969.7310317894   2.562911695   246.8803744707 945.329487770   0.000000000     0.400000000
 DNR =   0.000000000<0.5; Swap the active orbitals
  19 18   1.000000000    -2216.6114073415   3.438484798  -246.8803755521 945.329487779   0.000000000     0.400000000
 DNR =   0.000000000<0.5; Swap the active orbitals
  20 19   1.000000000    -1969.7310317581   2.562911573   246.8803755834 945.329488302   0.000000000     0.400000000
 DNR =   0.000000000<0.5; Swap the active orbitals
  21 20   1.000000000    -2216.6114074062   3.438484819  -246.8803756481 945.329488309   0.000000000     0.400000000
 DNR =   0.000000000<0.5; Swap the active orbitals
  22 21   1.000000000    -1969.7310317554   2.562911564   246.8803756507 945.329488924   0.000000000     0.400000000
 DNR =   0.000000000<0.5; Swap the active orbitals
  23 22   1.000000000    -2216.6114074172   3.438484825  -246.8803756618 945.329488922   0.000000000     0.400000000
 DNR =   0.000000000<0.5; Swap the active orbitals
  24 23   1.000000000    -1969.7310317543   2.562911562   246.8803756629 945.329487969   0.000000000     0.400000000
 DNR =   0.000000000<0.5; Swap the active orbitals
  25 24   1.000000000    -2216.6114074085   3.438484817  -246.8803756541 945.329487981   0.000000000     0.400000000
 DNR =   0.000000000<0.5; Swap the active orbitals
  26 25   1.000000000    -1969.7310317542   2.562911562   246.8803756543 945.329487780   0.000000000     0.400000000
 DNR =   0.000000000<0.5; Swap the active orbitals
  27 26   1.000000000    -2216.6114074519   3.438484814  -246.8803756977 945.329487747   0.000000000     0.400000000
 DNR =   0.000000000<0.5; Swap the active orbitals
  28 27   1.000000000    -1969.7310317525   2.562911563   246.8803756993 945.329487617   0.000000000     0.400000000
 DNR =   0.000000000<0.5; Swap the active orbitals
  29 28   1.000000000    -2216.6114074138   3.438484813  -246.8803756613 945.329487624   0.000000000     0.400000000
 DNR =   0.000000000<0.5; Swap the active orbitals
  30 29   1.000000000    -1969.7310317524   2.562911562   246.8803756614 945.329487281   0.000000000     0.400000000
 DNR =   0.000000000<0.5; Swap the active orbitals
  31 30   1.000000000    -2216.6114074117   3.438484809  -246.8803756593 945.329487290   0.000000000     0.400000000
 DNR =   0.000000000<0.5; Swap the active orbitals
  32 31   1.000000000    -1969.7310317547   2.562911562   246.8803756569 945.329488206   0.000000000     0.400000000
 DNR =   0.000000000<0.5; Swap the active orbitals
  33 32   1.000000000    -2216.6114074185   3.438484818  -246.8803756638 945.329488230   0.000000000     0.400000000
 DNR =   0.000000000<0.5; Swap the active orbitals
  34 33   1.000000000    -1969.7310317549   2.562911562   246.8803756637 945.329486916   0.000000000     0.400000000
 DNR =   0.000000000<0.5; Swap the active orbitals
  35 34   1.000000000    -2216.6114074093   3.438484805  -246.8803756544 945.329486894   0.000000000     0.400000000
 DNR =   0.000000000<0.5; Swap the active orbitals
  36 35   1.000000000    -1969.7310317539   2.562911562   246.8803756554 945.329488369   0.000000000     0.400000000
 DNR =   0.000000000<0.5; Swap the active orbitals
  37 36   1.000000000    -2216.6114074180   3.438484820  -246.8803756641 945.329488380   0.000000000     0.400000000
 DNR =   0.000000000<0.5; Swap the active orbitals
  38 37   1.000000000    -1969.7310317552   2.562911562   246.8803756627 945.329488869   0.000000000     0.400000000
 DNR =   0.000000000<0.5; Swap the active orbitals
  39 38   1.000000000    -2216.6114074439   3.438484822  -246.8803756887 945.329488862   0.000000000     0.400000000
 DNR =   0.000000000<0.5; Swap the active orbitals
  40 39   1.000000000    -1969.7310317531   2.562911562   246.8803756908 945.329488006   0.000000000     0.400000000
 DNR =   0.000000000<0.5; Swap the active orbitals
  41 40   1.000000000    -2216.6114074137   3.438484814  -246.8803756606 945.329488018   0.000000000     0.400000000
 DNR =   0.000000000<0.5; Swap the active orbitals
  42 41   1.000000000    -1969.7310317550   2.562911562   246.8803756587 945.329487307   0.000000000     0.400000000
 DNR =   0.000000000<0.5; Swap the active orbitals
  43 42   1.000000000    -2216.6114074181   3.438484805  -246.8803756631 945.329487282   0.000000000     0.400000000
 DNR =   0.000000000<0.5; Swap the active orbitals
  44 43   1.000000000    -1969.7310317555   2.562911562   246.8803756626 945.329489308   0.000000000     0.400000000
 DNR =   0.000000000<0.5; Swap the active orbitals
  45 44   1.000000000    -2216.6114074331   3.438484826  -246.8803756776 945.329489303   0.000000000     0.400000000
 DNR =   0.000000000<0.5; Swap the active orbitals
  46 45   1.000000000    -1969.7310317541   2.562911562   246.8803756790 945.329487094   0.000000000     0.400000000
 DNR =   0.000000000<0.5; Swap the active orbitals
  47 46   1.000000000    -2216.6114073842   3.438484809  -246.8803756301 945.329487135   0.000000000     0.400000000
 DNR =   0.000000000<0.5; Swap the active orbitals
  48 47   1.000000000    -1969.7310317550   2.562911561   246.8803756292 945.329487542   0.000000000     0.400000000
 DNR =   0.000000000<0.5; Swap the active orbitals
  49 48   1.000000000    -2216.6114074190   3.438484812  -246.8803756640 945.329487499   0.000000000     0.400000000
 DNR =   0.000000000<0.5; Swap the active orbitals
  50 49   1.000000000    -1969.7310317514   2.562911563   246.8803756676 945.329488051   0.000000000     0.400000000
 DNR =   0.000000000<0.5; Swap the active orbitals
  51 50   1.000000000    -2216.6114074303   3.438484819  -246.8803756789 945.329488052   0.000000000     0.400000000
 DNR =   0.000000000<0.5; Swap the active orbitals
  52 51   1.000000000    -1969.7310317528   2.562911563   246.8803756774 945.329486802   0.000000000     0.400000000
 DNR =   0.000000000<0.5; Swap the active orbitals
  53 52   1.000000000    -2216.6114074091   3.438484810  -246.8803756563 945.329486811   0.000000000     0.400000000
 DNR =   0.000000000<0.5; Swap the active orbitals
  54 53   1.000000000    -1969.7310317525   2.562911562   246.8803756566 945.329488198   0.000000000     0.400000000
 DNR =   0.000000000<0.5; Swap the active orbitals
  55 54   1.000000000    -2216.6114074332   3.438484817  -246.8803756807 945.329488203   0.000000000     0.400000000
 DNR =   0.000000000<0.5; Swap the active orbitals
  56 55   1.000000000    -1969.7310317539   2.562911562   246.8803756794 945.329488040   0.000000000     0.400000000
 DNR =   0.000000000<0.5; Swap the active orbitals
  57 56   1.000000000    -2216.6114073964   3.438484811  -246.8803756426 945.329488070   0.000000000     0.400000000
 DNR =   0.000000000<0.5; Swap the active orbitals
  58 57   1.000000000    -1969.7310317560   2.562911562   246.8803756404 945.329487548   0.000000000     0.400000000
 DNR =   0.000000000<0.5; Swap the active orbitals
  59 58   1.000000000    -2216.6114074158   3.438484812  -246.8803756598 945.329487512   0.000000000     0.400000000
 DNR =   0.000000000<0.5; Swap the active orbitals
  60 59   1.000000000    -1969.7310317550   2.562911562   246.8803756609 945.329487486   0.000000000     0.400000000
 DNR =   0.000000000<0.5; Swap the active orbitals
  61 60   1.000000000    -2216.6114074080   3.438484815  -246.8803756530 945.329487495   0.000000000     0.400000000
 DNR =   0.000000000<0.5; Swap the active orbitals
  62 61   1.000000000    -1969.7310317544   2.562911562   246.8803756536 945.329486791   0.000000000     0.400000000
 DNR =   0.000000000<0.5; Swap the active orbitals
  63 62   1.000000000    -2216.6114074137   3.438484812  -246.8803756593 945.329486794   0.000000000     0.400000000
 DNR =   0.000000000<0.5; Swap the active orbitals
  64 63   1.000000000    -1969.7310317516   2.562911562   246.8803756621 945.329489204   0.000000000     0.400000000
 DNR =   0.000000000<0.5; Swap the active orbitals
  65 64   1.000000000    -2216.6114074414   3.438484824  -246.8803756898 945.329489180   0.000000000     0.400000000
 DNR =   0.000000000<0.5; Swap the active orbitals
  66 65   1.000000000    -1969.7310317536   2.562911562   246.8803756878 945.329488199   0.000000000     0.400000000
 DNR =   0.000000000<0.5; Swap the active orbitals
  67 66   1.000000000    -2216.6114074234   3.438484820  -246.8803756698 945.329488236   0.000000000     0.400000000
 DNR =   0.000000000<0.5; Swap the active orbitals
  68 67   1.000000000    -1969.7310317571   2.562911562   246.8803756664 945.329487745   0.000000000     0.400000000
 DNR =   0.000000000<0.5; Swap the active orbitals
  69 68   1.000000000    -2216.6114073778   3.438484812  -246.8803756208 945.329487770   0.000000000     0.400000000
 DNR =   0.000000000<0.5; Swap the active orbitals
  70 69   1.000000000    -1969.7310317571   2.562911562   246.8803756207 945.329488611   0.000000000     0.400000000
 DNR =   0.000000000<0.5; Swap the active orbitals
  71 70   1.000000000    -2216.6114074245   3.438484818  -246.8803756673 945.329488562   0.000000000     0.400000000
 DNR =   0.000000000<0.5; Swap the active orbitals
  72 71   1.000000000    -1969.7310317485   2.562911562   246.8803756760 945.329487635   0.000000000     0.400000000
 DNR =   0.000000000<0.5; Swap the active orbitals
  73 72   1.000000000    -2216.6114074160   3.438484811  -246.8803756675 945.329487630   0.000000000     0.400000000
 DNR =   0.000000000<0.5; Swap the active orbitals
  74 73   1.000000000    -1969.7310317558   2.562911562   246.8803756602 945.329488494   0.000000000     0.400000000
 DNR =   0.000000000<0.5; Swap the active orbitals
  75 74   1.000000000    -2216.6114074168   3.438484817  -246.8803756610 945.329488510   0.000000000     0.400000000
 DNR =   0.000000000<0.5; Swap the active orbitals
  76 75   1.000000000    -1969.7310317560   2.562911562   246.8803756609 945.329488596   0.000000000     0.400000000
 DNR =   0.000000000<0.5; Swap the active orbitals
  77 76   1.000000000    -2216.6114074367   3.438484821  -246.8803756808 945.329488565   0.000000000     0.400000000
 DNR =   0.000000000<0.5; Swap the active orbitals
  78 77   1.000000000    -1969.7310317507   2.562911562   246.8803756860 945.329488354   0.000000000     0.400000000
 DNR =   0.000000000<0.5; Swap the active orbitals
  79 78   1.000000000    -2216.6114074234   3.438484814  -246.8803756727 945.329488394   0.000000000     0.400000000
 DNR =   0.000000000<0.5; Swap the active orbitals
  80 79   1.000000000    -1969.7310317527   2.562911562   246.8803756707 945.329487753   0.000000000     0.400000000
 DNR =   0.000000000<0.5; Swap the active orbitals
  81 80   1.000000000    -2216.6114074206   3.438484814  -246.8803756679 945.329487741   0.000000000     0.400000000
 DNR =   0.000000000<0.5; Swap the active orbitals
  82 81   1.000000000    -1969.7310317508   2.562911562   246.8803756697 945.329487381   0.000000000     0.400000000
 DNR =   0.000000000<0.5; Swap the active orbitals
  83 82   1.000000000    -2216.6114074121   3.438484813  -246.8803756612 945.329487392   0.000000000     0.400000000
 DNR =   0.000000000<0.5; Swap the active orbitals
  84 83   1.000000000    -1969.7310317539   2.562911562   246.8803756582 945.329488560   0.000000000     0.400000000
 DNR =   0.000000000<0.5; Swap the active orbitals
  85 84   1.000000000    -2216.6114074378   3.438484820  -246.8803756839 945.329488540   0.000000000     0.400000000
 DNR =   0.000000000<0.5; Swap the active orbitals
  86 85   1.000000000    -1969.7310317522   2.562911562   246.8803756856 945.329487415   0.000000000     0.400000000
 DNR =   0.000000000<0.5; Swap the active orbitals
  87 86   1.000000000    -2216.6114074072   3.438484808  -246.8803756550 945.329487435   0.000000000     0.400000000
 DNR =   0.000000000<0.5; Swap the active orbitals
  88 87   1.000000000    -1969.7310317573   2.562911563   246.8803756499 945.329486805   0.000000000     0.400000000
 DNR =   0.000000000<0.5; Swap the active orbitals
  89 88   1.000000000    -2216.6114074012   3.438484803  -246.8803756439 945.329486822   0.000000000     0.400000000
 DNR =   0.000000000<0.5; Swap the active orbitals
  90 89   1.000000000    -1969.7310317541   2.562911562   246.8803756471 945.329487307   0.000000000     0.400000000
 DNR =   0.000000000<0.5; Swap the active orbitals
  91 90   1.000000000    -2216.6114074197   3.438484808  -246.8803756656 945.329487274   0.000000000     0.400000000
 DNR =   0.000000000<0.5; Swap the active orbitals
  92 91   1.000000000    -1969.7310317547   2.562911562   246.8803756650 945.329488060   0.000000000     0.400000000
 DNR =   0.000000000<0.5; Swap the active orbitals
  93 92   1.000000000    -2216.6114074019   3.438484821  -246.8803756472 945.329488071   0.000000000     0.400000000
 DNR =   0.000000000<0.5; Swap the active orbitals
  94 93   1.000000000    -1969.7310317537   2.562911563   246.8803756482 945.329487136   0.000000000     0.400000000
 DNR =   0.000000000<0.5; Swap the active orbitals
  95 94   1.000000000    -2216.6114073876   3.438484807  -246.8803756339 945.329487156   0.000000000     0.400000000
 DNR =   0.000000000<0.5; Swap the active orbitals
  96 95   1.000000000    -1969.7310317574   2.562911562   246.8803756302 945.329487294   0.000000000     0.400000000
 DNR =   0.000000000<0.5; Swap the active orbitals
  97 96   1.000000000    -2216.6114074103   3.438484811  -246.8803756529 945.329487273   0.000000000     0.400000000
 DNR =   0.000000000<0.5; Swap the active orbitals
  98 97   1.000000000    -1969.7310317501   2.562911562   246.8803756602 945.329488189   0.000000000     0.400000000
 DNR =   0.000000000<0.5; Swap the active orbitals
  99 98   1.000000000    -2216.6114074066   3.438484815  -246.8803756565 945.329488213   0.000000000     0.400000000
 DNR =   0.000000000<0.5; Swap the active orbitals
 100 99   1.000000000    -1969.7310317576   2.562911562   246.8803756491 945.329489313   0.000000000     0.400000000
 DNR =   0.000000000<0.5; Swap the active orbitals
 101100   1.000000000    -2216.6114074299   3.438484819  -246.8803756723 945.329489297   0.000000000     0.400000000
 DNR =   0.000000000<0.5; Swap the active orbitals
 102101   1.000000000    -1969.7310317548   2.562911562   246.8803756751 945.329488334   0.000000000     0.400000000
 DNR =   0.000000000<0.5; Swap the active orbitals
 103102   1.000000000    -2216.6114073971   3.438484814  -246.8803756423 945.329488342   0.000000000     0.400000000
 DNR =   0.000000000<0.5; Swap the active orbitals
 104103   1.000000000    -1969.7310317534   2.562911562   246.8803756437 945.329487535   0.000000000     0.400000000
 DNR =   0.000000000<0.5; Swap the active orbitals
 105104   1.000000000    -2216.6114074038   3.438484815  -246.8803756504 945.329487532   0.000000000     0.400000000
 DNR =   0.000000000<0.5; Swap the active orbitals
 106105   1.000000000    -1969.7310317543   2.562911562   246.8803756495 945.329487337   0.000000000     0.400000000
 DNR =   0.000000000<0.5; Swap the active orbitals
 107106   1.000000000    -2216.6114074126   3.438484813  -246.8803756583 945.329487314   0.000000000     0.400000000
 DNR =   0.000000000<0.5; Swap the active orbitals
 108107   1.000000000    -1969.7310317550   2.562911562   246.8803756576 945.329488547   0.000000000     0.400000000
 DNR =   0.000000000<0.5; Swap the active orbitals
 109108   1.000000000    -2216.6114074280   3.438484817  -246.8803756730 945.329488553   0.000000000     0.400000000
 DNR =   0.000000000<0.5; Swap the active orbitals
 110109   1.000000000    -1969.7310317569   2.562911562   246.8803756711 945.329488751   0.000000000     0.400000000
 DNR =   0.000000000<0.5; Swap the active orbitals
 111110   1.000000000    -2216.6114074381   3.438484822  -246.8803756813 945.329488736   0.000000000     0.400000000
 DNR =   0.000000000<0.5; Swap the active orbitals
 112111   1.000000000    -1969.7310317527   2.562911562   246.8803756854 945.329488422   0.000000000     0.400000000
 DNR =   0.000000000<0.5; Swap the active orbitals
 113112   1.000000000    -2216.6114074160   3.438484820  -246.8803756633 945.329488447   0.000000000     0.400000000
 DNR =   0.000000000<0.5; Swap the active orbitals
 114113   1.000000000    -1969.7310317557   2.562911562   246.8803756603 945.329488485   0.000000000     0.400000000
 DNR =   0.000000000<0.5; Swap the active orbitals
 115114   1.000000000    -2216.6114074237   3.438484818  -246.8803756681 945.329488471   0.000000000     0.400000000
 DNR =   0.000000000<0.5; Swap the active orbitals
 116115   1.000000000    -1969.7310317536   2.562911562   246.8803756701 945.329487988   0.000000000     0.400000000
 DNR =   0.000000000<0.5; Swap the active orbitals
 117116   1.000000000    -2216.6114073995   3.438484815  -246.8803756459 945.329488006   0.000000000     0.400000000
 DNR =   0.000000000<0.5; Swap the active orbitals
 118117   1.000000000    -1969.7310317539   2.562911562   246.8803756456 945.329487987   0.000000000     0.400000000
 DNR =   0.000000000<0.5; Swap the active orbitals
 119118   1.000000000    -2216.6114074299   3.438484813  -246.8803756759 945.329487945   0.000000000     0.400000000
 DNR =   0.000000000<0.5; Swap the active orbitals
 120119   1.000000000    -1969.7310317520   2.562911562   246.8803756779 945.329487597   0.000000000     0.400000000
 DNR =   0.000000000<0.5; Swap the active orbitals
 121120   1.000000000    -2216.6114074146   3.438484818  -246.8803756626 945.329487629   0.000000000     0.400000000
 DNR =   0.000000000<0.5; Swap the active orbitals
 122121   1.000000000    -1969.7310317552   2.562911563   246.8803756593 945.329487464   0.000000000     0.400000000
 DNR =   0.000000000<0.5; Swap the active orbitals
 123122   1.000000000    -2216.6114074289   3.438484809  -246.8803756736 945.329487468   0.000000000     0.400000000
 DNR =   0.000000000<0.5; Swap the active orbitals
 124123   1.000000000    -1969.7310317537   2.562911562   246.8803756752 945.329488067   0.000000000     0.400000000
 DNR =   0.000000000<0.5; Swap the active orbitals
 125124   1.000000000    -2216.6114073988   3.438484811  -246.8803756450 945.329488083   0.000000000     0.400000000
 DNR =   0.000000000<0.5; Swap the active orbitals
 126125   1.000000000    -1969.7310317573   2.562911562   246.8803756414 945.329489111   0.000000000     0.400000000
 DNR =   0.000000000<0.5; Swap the active orbitals
 127126   1.000000000    -2216.6114074400   3.438484819  -246.8803756827 945.329489098   0.000000000     0.400000000
 DNR =   0.000000000<0.5; Swap the active orbitals
 128127   1.000000000    -1969.7310317519   2.562911563   246.8803756882 945.329487018   0.000000000     0.400000000
 DNR =   0.000000000<0.5; Swap the active orbitals
 129128   1.000000000    -2216.6114074174   3.438484811  -246.8803756656 945.329487013   0.000000000     0.400000000
 DNR =   0.000000000<0.5; Swap the active orbitals
 130129   1.000000000    -1969.7310317525   2.562911562   246.8803756649 945.329489075   0.000000000     0.400000000
 DNR =   0.000000000<0.5; Swap the active orbitals
 131130   1.000000000    -2216.6114074137   3.438484823  -246.8803756612 945.329489098   0.000000000     0.400000000
 DNR =   0.000000000<0.5; Swap the active orbitals
 132131   1.000000000    -1969.7310317567   2.562911562   246.8803756570 945.329487901   0.000000000     0.400000000
 DNR =   0.000000000<0.5; Swap the active orbitals
 133132   1.000000000    -2216.6114074068   3.438484817  -246.8803756501 945.329487885   0.000000000     0.400000000
 DNR =   0.000000000<0.5; Swap the active orbitals
 134133   1.000000000    -1969.7310317549   2.562911562   246.8803756519 945.329488497   0.000000000     0.400000000
 DNR =   0.000000000<0.5; Swap the active orbitals
 135134   1.000000000    -2216.6114074302   3.438484816  -246.8803756753 945.329488492   0.000000000     0.400000000
 DNR =   0.000000000<0.5; Swap the active orbitals
 136135   1.000000000    -1969.7310317532   2.562911563   246.8803756771 945.329488701   0.000000000     0.400000000
 DNR =   0.000000000<0.5; Swap the active orbitals
 137136   1.000000000    -2216.6114074414   3.438484821  -246.8803756882 945.329488701   0.000000000     0.400000000
 DNR =   0.000000000<0.5; Swap the active orbitals
 138137   1.000000000    -1969.7310317526   2.562911562   246.8803756887 945.329487797   0.000000000     0.400000000
 DNR =   0.000000000<0.5; Swap the active orbitals
 139138   1.000000000    -2216.6114073704   3.438484814  -246.8803756178 945.329487833   0.000000000     0.400000000
 DNR =   0.000000000<0.5; Swap the active orbitals
 140139   1.000000000    -1969.7310317556   2.562911562   246.8803756148 945.329487561   0.000000000     0.400000000
 DNR =   0.000000000<0.5; Swap the active orbitals
 141140   1.000000000    -2216.6114074068   3.438484804  -246.8803756511 945.329487560   0.000000000     0.400000000
 DNR =   0.000000000<0.5; Swap the active orbitals
 142141   1.000000000    -1969.7310317559   2.562911562   246.8803756509 945.329487733   0.000000000     0.400000000
 DNR =   0.000000000<0.5; Swap the active orbitals
 143142   1.000000000    -2216.6114074355   3.438484810  -246.8803756796 945.329487688   0.000000000     0.400000000
 DNR =   0.000000000<0.5; Swap the active orbitals
 144143   1.000000000    -1969.7310317538   2.562911562   246.8803756818 945.329488904   0.000000000     0.400000000
 DNR =   0.000000000<0.5; Swap the active orbitals
 145144   1.000000000    -2216.6114074208   3.438484818  -246.8803756671 945.329488926   0.000000000     0.400000000
 DNR =   0.000000000<0.5; Swap the active orbitals
 146145   1.000000000    -1969.7310317554   2.562911562   246.8803756654 945.329487034   0.000000000     0.400000000
 DNR =   0.000000000<0.5; Swap the active orbitals
 147146   1.000000000    -2216.6114074110   3.438484812  -246.8803756556 945.329487030   0.000000000     0.400000000
 DNR =   0.000000000<0.5; Swap the active orbitals
 148147   1.000000000    -1969.7310317521   2.562911562   246.8803756588 945.329488812   0.000000000     0.400000000
 DNR =   0.000000000<0.5; Swap the active orbitals
 149148   1.000000000    -2216.6114074269   3.438484816  -246.8803756748 945.329488802   0.000000000     0.400000000
 DNR =   0.000000000<0.5; Swap the active orbitals
 150149   1.000000000    -1969.7310317549   2.562911562   246.8803756720 945.329488183   0.000000000     0.400000000
 DNR =   0.000000000<0.5; Swap the active orbitals
 151150   1.000000000    -2216.6114074164   3.438484811  -246.8803756615 945.329488192   0.000000000     0.400000000
 DNR =   0.000000000<0.5; Swap the active orbitals
 152151   1.000000000    -1969.7310317530   2.562911562   246.8803756634 945.329488148   0.000000000     0.400000000
 DNR =   0.000000000<0.5; Swap the active orbitals
 153152   1.000000000    -2216.6114074125   3.438484822  -246.8803756595 945.329488162   0.000000000     0.400000000
 DNR =   0.000000000<0.5; Swap the active orbitals
 154153   1.000000000    -1969.7310317538   2.562911562   246.8803756586 945.329488182   0.000000000     0.400000000
 DNR =   0.000000000<0.5; Swap the active orbitals
 155154   1.000000000    -2216.6114074375   3.438484823  -246.8803756837 945.329488140   0.000000000     0.400000000
 DNR =   0.000000000<0.5; Swap the active orbitals
 156155   1.000000000    -1969.7310317519   2.562911563   246.8803756856 945.329488419   0.000000000     0.400000000
 DNR =   0.000000000<0.5; Swap the active orbitals
 157156   1.000000000    -2216.6114074002   3.438484823  -246.8803756483 945.329488470   0.000000000     0.400000000
 DNR =   0.000000000<0.5; Swap the active orbitals
 158157   1.000000000    -1969.7310317571   2.562911562   246.8803756431 945.329488448   0.000000000     0.400000000
 DNR =   0.000000000<0.5; Swap the active orbitals
 159158   1.000000000    -2216.6114074333   3.438484817  -246.8803756762 945.329488404   0.000000000     0.400000000
 DNR =   0.000000000<0.5; Swap the active orbitals
 160159   1.000000000    -1969.7310317553   2.562911562   246.8803756780 945.329488812   0.000000000     0.400000000
 DNR =   0.000000000<0.5; Swap the active orbitals
 161160   1.000000000    -2216.6114074253   3.438484822  -246.8803756700 945.329488833   0.000000000     0.400000000
 DNR =   0.000000000<0.5; Swap the active orbitals
 162161   1.000000000    -1969.7310317538   2.562911562   246.8803756715 945.329488281   0.000000000     0.400000000
 DNR =   0.000000000<0.5; Swap the active orbitals
 163162   1.000000000    -2216.6114074344   3.438484816  -246.8803756807 945.329488239   0.000000000     0.400000000
 DNR =   0.000000000<0.5; Swap the active orbitals
 164163   1.000000000    -1969.7310317530   2.562911562   246.8803756815 945.329488096   0.000000000     0.400000000
 DNR =   0.000000000<0.5; Swap the active orbitals
 165164   1.000000000    -2216.6114074189   3.438484814  -246.8803756660 945.329488119   0.000000000     0.400000000
 DNR =   0.000000000<0.5; Swap the active orbitals
 166165   1.000000000    -1969.7310317529   2.562911563   246.8803756661 945.329489244   0.000000000     0.400000000
 DNR =   0.000000000<0.5; Swap the active orbitals
 167166   1.000000000    -2216.6114074332   3.438484820  -246.8803756804 945.329489248   0.000000000     0.400000000
 DNR =   0.000000000<0.5; Swap the active orbitals
 168167   1.000000000    -1969.7310317530   2.562911562   246.8803756802 945.329488199   0.000000000     0.400000000
 DNR =   0.000000000<0.5; Swap the active orbitals
 169168   1.000000000    -2216.6114074421   3.438484817  -246.8803756891 945.329488181   0.000000000     0.400000000
 DNR =   0.000000000<0.5; Swap the active orbitals
 170169   1.000000000    -1969.7310317515   2.562911563   246.8803756906 945.329488279   0.000000000     0.400000000
 DNR =   0.000000000<0.5; Swap the active orbitals
 171170   1.000000000    -2216.6114074011   3.438484816  -246.8803756496 945.329488333   0.000000000     0.400000000
 DNR =   0.000000000<0.5; Swap the active orbitals
 172171   1.000000000    -1969.7310317571   2.562911562   246.8803756440 945.329487598   0.000000000     0.400000000
 DNR =   0.000000000<0.5; Swap the active orbitals
 173172   1.000000000    -2216.6114074042   3.438484809  -246.8803756470 945.329487584   0.000000000     0.400000000
 DNR =   0.000000000<0.5; Swap the active orbitals
 174173   1.000000000    -1969.7310317557   2.562911562   246.8803756485 945.329488615   0.000000000     0.400000000
 DNR =   0.000000000<0.5; Swap the active orbitals
 175174   1.000000000    -2216.6114074144   3.438484815  -246.8803756587 945.329488606   0.000000000     0.400000000
 DNR =   0.000000000<0.5; Swap the active orbitals
 176175   1.000000000    -1969.7310317533   2.562911562   246.8803756611 945.329487861   0.000000000     0.400000000
 DNR =   0.000000000<0.5; Swap the active orbitals
 177176   1.000000000    -2216.6114074195   3.438484819  -246.8803756662 945.329487847   0.000000000     0.400000000
 DNR =   0.000000000<0.5; Swap the active orbitals
 178177   1.000000000    -1969.7310317545   2.562911563   246.8803756649 945.329488862   0.000000000     0.400000000
 DNR =   0.000000000<0.5; Swap the active orbitals
 179178   1.000000000    -2216.6114074130   3.438484822  -246.8803756585 945.329488879   0.000000000     0.400000000
 DNR =   0.000000000<0.5; Swap the active orbitals
 180179   1.000000000    -1969.7310317556   2.562911562   246.8803756575 945.329488117   0.000000000     0.400000000
 DNR =   0.000000000<0.5; Swap the active orbitals
 181180   1.000000000    -2216.6114074269   3.438484816  -246.8803756714 945.329488101   0.000000000     0.400000000
 DNR =   0.000000000<0.5; Swap the active orbitals
 182181   1.000000000    -1969.7310317543   2.562911563   246.8803756726 945.329488648   0.000000000     0.400000000
 DNR =   0.000000000<0.5; Swap the active orbitals
 183182   1.000000000    -2216.6114074201   3.438484814  -246.8803756657 945.329488655   0.000000000     0.400000000
 DNR =   0.000000000<0.5; Swap the active orbitals
 184183   1.000000000    -1969.7310317535   2.562911562   246.8803756665 945.329488582   0.000000000     0.400000000
 DNR =   0.000000000<0.5; Swap the active orbitals
 185184   1.000000000    -2216.6114074383   3.438484819  -246.8803756847 945.329488588   0.000000000     0.400000000
 DNR =   0.000000000<0.5; Swap the active orbitals
 186185   1.000000000    -1969.7310317503   2.562911562   246.8803756879 945.329487874   0.000000000     0.400000000
 DNR =   0.000000000<0.5; Swap the active orbitals
 187186   1.000000000    -2216.6114073990   3.438484810  -246.8803756487 945.329487894   0.000000000     0.400000000
 DNR =   0.000000000<0.5; Swap the active orbitals
 188187   1.000000000    -1969.7310317552   2.562911563   246.8803756439 945.329488318   0.000000000     0.400000000
 DNR =   0.000000000<0.5; Swap the active orbitals
 189188   1.000000000    -2216.6114073987   3.438484814  -246.8803756435 945.329488321   0.000000000     0.400000000
 DNR =   0.000000000<0.5; Swap the active orbitals
 190189   1.000000000    -1969.7310317515   2.562911562   246.8803756471 945.329488035   0.000000000     0.400000000
 DNR =   0.000000000<0.5; Swap the active orbitals
 191190   1.000000000    -2216.6114073897   3.438484813  -246.8803756382 945.329488028   0.000000000     0.400000000
 DNR =   0.000000000<0.5; Swap the active orbitals
 192191   1.000000000    -1969.7310317548   2.562911562   246.8803756349 945.329488321   0.000000000     0.400000000
 DNR =   0.000000000<0.5; Swap the active orbitals
 193192   1.000000000    -2216.6114074334   3.438484817  -246.8803756786 945.329488274   0.000000000     0.400000000
 DNR =   0.000000000<0.5; Swap the active orbitals
 194193   1.000000000    -1969.7310317532   2.562911562   246.8803756802 945.329488199   0.000000000     0.400000000
 DNR =   0.000000000<0.5; Swap the active orbitals
 195194   1.000000000    -2216.6114073894   3.438484815  -246.8803756362 945.329488252   0.000000000     0.400000000
 DNR =   0.000000000<0.5; Swap the active orbitals
 196195   1.000000000    -1969.7310317561   2.562911562   246.8803756333 945.329487823   0.000000000     0.400000000
 DNR =   0.000000000<0.5; Swap the active orbitals
 197196   1.000000000    -2216.6114074300   3.438484813  -246.8803756739 945.329487791   0.000000000     0.400000000
 DNR =   0.000000000<0.5; Swap the active orbitals
 198197   1.000000000    -1969.7310317530   2.562911562   246.8803756770 945.329488231   0.000000000     0.400000000
 DNR =   0.000000000<0.5; Swap the active orbitals
 199198   1.000000000    -2216.6114074058   3.438484817  -246.8803756527 945.329488258   0.000000000     0.400000000
 DNR =   0.000000000<0.5; Swap the active orbitals
 200199   1.000000000    -1969.7310317554   2.562911562   246.8803756504 945.329487821   0.000000000     0.400000000

 SCF IS UNCONVERGED, TOO MANY ITERATIONS
     TIME TO FORM FOCK OPERATORS=     426.2 SECONDS (       2.1 SEC/ITER)
     TIME TO SOLVE SCF EQUATIONS=       3.6 SECONDS (       0.0 SEC/ITER)

 FINAL SA-REKS(2,2)-BHHLYP ENERGY IS        0.0000000000 AFTER 200 ITERATIONS
 SA-REKS(2,2)-BHHLYP:  FON( 76)=2.00000000 FON( 77)=0.00000000

 ====================================================================================================================

  SA: final printout

 ==============================================================

 Triplet:...............................    -1963.670320779660
 Doubly excited singlet (DES):..........    -1950.451092107030
 Open Shell Singlet (OSS):..............    -1963.669804025941
 Perfectly Paired Singlet (PPS):........    -1975.792259484803

 Lagrangian Wrs:........................       -0.168024756067

  SA: the averaged state is reported

  SA: final energy =        0.000000000000

  SA: transition dipole between the OSS and PPS states
        Dipole = ( -0.45907980,  0.58719712, -0.06573675); |D| =  0.74824865 Debye

 ====================================================================================================================

          ------------
          EIGENVECTORS
          ------------

                      1          2          3          4          5
                 -246.6553  -191.0113  -190.8552  -147.2185   -75.1920
                     A          A          A          A          A   
    1  TI 1  S   -0.000015   0.996641   0.000009  -0.000003  -0.000698
    2  TI 1  S   -0.000111  -0.011679  -0.000009   0.000071  -0.001727
    3  TI 1  X    0.000017   0.000804  -0.000003   0.000004   0.000478
    4  TI 1  Y    0.000001   0.001475   0.000002  -0.000004   0.000065
    5  TI 1  Z   -0.000007  -0.000251  -0.000001  -0.000001  -0.000138
    6  TI 1  S   -0.000853   0.021249  -0.000204   0.000523  -0.025539
    7  TI 1  X   -0.000063  -0.000285  -0.000005  -0.000039  -0.005039
    8  TI 1  Y    0.000143  -0.000821   0.000010   0.000026  -0.000769
    9  TI 1  Z   -0.000033   0.000128  -0.000019  -0.000001   0.000523
   10  TI 1  S   -0.002922  -0.000612   0.000008   0.001371  -0.012153
   11  TI 1  X    0.001187   0.000375  -0.000038  -0.000351   0.002869
   12  TI 1  Y    0.000963  -0.000061   0.000066   0.000192   0.005914
   13  TI 1  Z   -0.000594  -0.000008  -0.000118   0.000049  -0.006674
   14  TI 1  S   -0.005145  -0.001207  -0.000181   0.002442   0.008700
   15  TI 1  X   -0.001545  -0.000318  -0.000018   0.000274   0.001618
   16  TI 1  Y   -0.000243   0.000158  -0.000077  -0.000678   0.002907
   17  TI 1  Z    0.000410   0.000053   0.000105  -0.000071   0.002816
   18  TI 1 XX   -0.000493   0.008937  -0.000147   0.000145  -0.019499
   19  TI 1 YY   -0.000516   0.008758  -0.000128   0.000158  -0.018820
   20  TI 1 ZZ   -0.000453   0.008743  -0.000125   0.000123  -0.017611
[...]
            137  O  6 XZ     -0.00012     0.00027
            138  O  6 YZ     -0.00025     0.00044
            139  TI 7  S      2.00313     1.99899
            140  TI 7  S      1.96758     1.96714
            141  TI 7  X      2.00306     1.99812
            142  TI 7  Y      2.00087     1.99940
            143  TI 7  Z      2.00034     1.99970
            144  TI 7  S      1.80305     1.76402
            145  TI 7  X      2.06911     1.82207
            146  TI 7  Y      2.13848     1.90809
            147  TI 7  Z      2.13520     1.94244
            148  TI 7  S     -0.37199     0.09821
            149  TI 7  X      0.17317     0.11749
            150  TI 7  Y      0.01944     0.09861
            151  TI 7  Z     -0.12370     0.09211
            152  TI 7  S      0.17932     0.02413
            153  TI 7  X     -0.03837     0.00513
            154  TI 7  Y     -0.03070     0.00587
            155  TI 7  Z      0.01857     0.00500
            156  TI 7 XX      1.77458     1.60631
            157  TI 7 YY      1.70447     1.59678
            158  TI 7 ZZ      1.60383     1.57440
            159  TI 7 XY      2.00315     1.98421
            160  TI 7 XZ      1.99977     1.98969
            161  TI 7 YZ      2.00604     1.99349
            162  TI 7 XX      7.00531     1.27956
            163  TI 7 YY      2.66571     1.29057
            164  TI 7 ZZ     -0.32859     1.18117
            165  TI 7 XY      5.46561     1.39409
            166  TI 7 XZ      7.04494     1.61815
            167  TI 7 YZ      3.11799     1.64285
            168  TI 7 XXX     1.97738     1.78102
            169  TI 7 YYY     1.83950     1.67985
            170  TI 7 ZZZ     2.30115     1.78605
            171  TI 7 XXY     2.15116     1.90459
            172  TI 7 XXZ     2.00637     1.96065
            173  TI 7 YYX     1.70103     1.84599
            174  TI 7 YYZ     2.07139     1.90674
            175  TI 7 ZZX     1.09487     1.82825
            176  TI 7 ZZY     2.03424     1.90822
            177  TI 7 XYZ     2.03640     1.95614
            178  O  8  S      2.00205     1.96571
            179  O  8  S      0.41366     0.42239
            180  O  8  X      0.04896     0.06025
            181  O  8  Y      0.54405     0.58455
            182  O  8  Z      0.07052     0.10787
            183  O  8  S      0.14843     0.11561
            184  O  8  X      0.01110     0.03134
            185  O  8  Y      0.00061     0.16700
            186  O  8  Z      0.00675     0.05348
            187  O  8 XX     -0.08004     0.02386
            188  O  8 YY      0.11351     0.23598
            189  O  8 ZZ     -0.06445     0.04042
            190  O  8 XY     -0.03321     0.08940
            191  O  8 XZ     -0.02804     0.03177
            192  O  8 YZ     -0.01732     0.10503
            193  TI 9  S      1.99147     1.95095
            194  TI 9  S      0.00781     0.04638
            195  TI 9  X      0.00000     0.00000
            196  TI 9  Y      0.00000     0.00000
            197  TI 9  Z     -0.00000     0.00000
            198  TI 9  S     -0.00024     0.00048
            199  TI 9  X      0.00008     0.00009
            200  TI 9  Y      0.00021     0.00026
            201  TI 9  Z      0.00002     0.00005
            202  TI 9  S      0.05170     0.00490
            203  TI 9  X     -0.00340     0.00230
            204  TI 9  Y      0.03864     0.01296
            205  TI 9  Z      0.00451     0.00194
            206  TI 9  S     -0.01746     0.00342
            207  TI 9  X      0.00399     0.00145
            208  TI 9  Y     -0.01038     0.00982
            209  TI 9  Z     -0.00045     0.00053
            210  TI 9 XX      0.00003     0.00017
            211  TI 9 YY      0.00016     0.00033
            212  TI 9 ZZ     -0.00007     0.00018
            213  TI 9 XY     -0.00003     0.00010
            214  TI 9 XZ     -0.00000     0.00001
            215  TI 9 YZ     -0.00002     0.00003
            216  TI 9 XX     -0.00140     0.00114
            217  TI 9 YY     -0.01269     0.00549
            218  TI 9 ZZ     -0.00167     0.00128
            219  TI 9 XY     -0.00242     0.00181
            220  TI 9 XZ      0.00017     0.00023
            221  TI 9 YZ      0.00159     0.00146
            222  TI 9 XXX     0.00002     0.00012
            223  TI 9 YYY     0.00078     0.00151
            224  TI 9 ZZZ    -0.00005     0.00013
            225  TI 9 XXY    -0.00014     0.00047
            226  TI 9 XXZ    -0.00001     0.00004
            227  TI 9 YYX     0.00027     0.00088
            228  TI 9 YYZ    -0.00032     0.00083
            229  TI 9 ZZX    -0.00004     0.00005
            230  TI 9 ZZY    -0.00012     0.00059
            231  TI 9 XYZ    -0.00005     0.00023
            232  O 10  S     -0.00000     0.00000
            233  O 10  S     -0.00001     0.00013
            234  O 10  X     -0.00000     0.00002
            235  O 10  Y     -0.00000     0.00005
            236  O 10  Z     -0.00000     0.00001
            237  O 10  S      0.00085     0.00094
            238  O 10  X      0.00093     0.00080
            239  O 10  Y     -0.00073     0.00158
            240  O 10  Z     -0.00014     0.00034
            241  O 10 XX      0.00001     0.00035
            242  O 10 YY     -0.00006     0.00026
            243  O 10 ZZ     -0.00004     0.00012
            244  O 10 XY     -0.00003     0.00017
            245  O 10 XZ     -0.00001     0.00002
            246  O 10 YZ     -0.00006     0.00009
            247  O 11  S      2.03782     1.98935
            248  O 11  S      1.06966     1.09821
            249  O 11  X      1.98765     1.95726
            250  O 11  Y      1.99611     1.98918
            251  O 11  Z      2.00091     1.99424
            252  O 11  S     -0.43957     0.43683
            253  O 11  X     -1.28906     0.31967
            254  O 11  Y     -4.74022     0.28097
            255  O 11  Z     -5.22938     0.27546
            256  O 11 XX      2.26826     1.79209
            257  O 11 YY      2.36998     1.77439
            258  O 11 ZZ      2.76723     1.81855
            259  O 11 XY      2.26199     1.91450
            260  O 11 XZ      2.14580     1.94735
            261  O 11 YZ      2.09171     1.94576
            262  O 12  S      2.06585     1.98344
            263  O 12  S      0.74155     0.85908
            264  O 12  X      1.98260     1.97142
            265  O 12  Y      2.00856     1.98583
            266  O 12  Z      2.00833     1.98760
            267  O 12  S      2.62720     0.68576
            268  O 12  X     -3.90619     0.43473
            269  O 12  Y     -1.34793     0.45544
            270  O 12  Z     -0.84725     0.48100
            271  O 12 XX      2.14832     1.75035
            272  O 12 YY      2.63323     1.78123
            273  O 12 ZZ      2.83674     1.90219
            274  O 12 XY      2.20910     1.83432
            275  O 12 XZ      2.17160     1.91380
            276  O 12 YZ      2.14861     1.90065

          ----- MULLIKEN ATOMIC OVERLAP POPULATIONS -----
          (OFF-DIAGONAL ELEMENTS NEED TO BE MULTIPLIED BY 2)

             1           2           3           4           5

    1   23.7058270
    2    3.0843936  36.1609083
    3    2.2686771   6.6729827  86.8239159
    4   -0.0174914   0.0091975  -0.0012702   2.0130529
    5    0.0011041  -0.1214110  -0.0031144  -0.0000021   2.0702780
    6   -0.1185955  -0.9780308  -1.0114525  -0.0000038   0.0002511
    7  -10.3403718  -7.1496551 -33.2490887  -0.0095515   0.0048934
    8   -0.5345853  -0.7537658  -1.1835957   0.0000032   0.0003540
    9   -0.4959942   0.2799626  -0.8052690   0.0048755  -0.0017962
   10   -0.0775835   0.0964934  -0.0559839  -0.0000268  -0.0000158
   11   -5.6422320 -14.6253936 -24.7282796   0.0014995  -0.0056669
   12    3.9785521  -7.2364451 -27.1757199   0.0001830   0.0671327

             6           7           8           9          10

    6    1.1654080
    7    0.20557431946.4692280
    8   -0.0842960  -6.3684000  10.3765149
    9   -0.3065988  -1.0023162   0.3697400   3.7349759
   10    0.0226794  -0.2350815  -0.0281021  -0.1325356   0.3403545
   11    0.1172515-653.0739473   4.2374319  -5.9965546  -0.0043487
   12    0.9827475************  -2.8947264   6.4019850   0.0748758

            11          12

   11 2417.5687524
   12 ************2913.8597945

          TOTAL MULLIKEN AND LOWDIN ATOMIC POPULATIONS
       ATOM         MULL.POP.    CHARGE          LOW.POP.     CHARGE
    1 TI           15.811700    6.188300        16.785921    5.214079
    2 TI           15.439237    6.560763        17.065706    4.934294
    3 O             7.551802    0.448198         9.017305   -1.017305
    4 O             2.000466    5.999534         2.001325    5.998675
    5 O             2.012007    5.987993         2.002963    5.997037
    6 O            -0.005066    8.005066         0.018684    7.981316
    7 TI           73.222862  -51.222862        55.555293  -33.555293
    8 O             3.136573    4.863427         4.034648    3.965352
    9 TI            2.050474   19.949526         2.052616   19.947384
   10 O             0.000725    7.999275         0.004881    7.995119
   11 O            11.298887   -3.298887        21.533822  -13.533822
   12 O            19.480332  -11.480332        21.926836  -13.926836

          -------------------------------
          BOND ORDER AND VALENCE ANALYSIS     BOND ORDER THRESHOLD=0.050
          -------------------------------

                   BOND                       BOND                       BOND
  ATOM PAIR DIST  ORDER      ATOM PAIR DIST  ORDER      ATOM PAIR DIST  ORDER
    1   3  1.319  0.397        1   7  1.880 -0.261        1  11  1.654 -0.378
    1  12  2.097  0.462        2   3  1.173  0.635        2   7  1.725 -0.093
    2   8  1.985 -0.149        2  11  2.092  0.762        2  12  1.477 -1.615
    3   7  1.292 -2.236        3   8  1.463 -0.082        3  11  1.427  0.645
    3  12  1.287 -0.796        7   8  1.614 -3.627        7   9  2.875  0.127
    7  11  0.449-93.109        7  12  0.337-42.798        8   9  1.954  0.073
    8  11  1.647  1.001        8  12  1.680  2.723        9  12  2.846 -0.073
   11  12  0.786  1.698

                       TOTAL       BONDED        FREE
      ATOM            VALENCE     VALENCE     VALENCE
    1 TI                0.187       0.141       0.047
    2 TI               -0.607      -0.520      -0.086
    3 O                -1.837      -1.460      -0.377
    4 O                 0.001       0.001       0.000
    5 O                 0.025       0.021       0.004
    6 O                -0.010      -0.025       0.015
    7 TI             -141.898    -142.008       0.111
    8 O                 0.248      -0.099       0.348
    9 TI                0.099       0.077       0.021
   10 O                 0.001       0.001       0.000
   11 O               -89.490     -89.401      -0.090
   12 O               -38.870     -40.378       1.508

          -----------------------------------------
          ATOMIC SPIN DENSITY AT THE NUCLEUS (A.U.)
          -----------------------------------------
                            SPIN DENS    ALPHA DENS     BETA DENS
    1  TI          22.0     0.0000000    6677.97702    6677.97702
    2  TI          22.0     0.0000000    6680.38183    6680.38183
    3  O            8.0     0.0000000     298.01508     298.01508
    4  O            8.0     0.0000000     278.15200     278.15200
    5  O            8.0     0.0000000     278.37975     278.37975
    6  O            8.0     0.0000000       0.03335       0.03335
    7  TI          22.0     0.0000000    6898.45754    6898.45754
    8  O            8.0     0.0000000     287.12348     287.12348
    9  TI          22.0     0.0000000    6096.06329    6096.06329
   10  O            8.0     0.0000000       0.01101       0.01101
   11  O            8.0     0.0000000     547.20066     547.20066
   12  O            8.0     0.0000000     550.35385     550.35385

          ---------------------
          ELECTROSTATIC MOMENTS
          ---------------------

 POINT   1           X           Y           Z (BOHR)    CHARGE
                 0.498870    0.201541    0.051969       -0.00 (A.U.)
         DX          DY          DZ         /D/  (DEBYE)
  -164.698991 -671.883524  225.494489  727.599472
 ...... END OF PROPERTY EVALUATION ......
 CPU     0: STEP CPU TIME=     0.09 TOTAL CPU TIME=        434.7 (      7.2 MIN)
 TOTAL WALL CLOCK TIME=        497.3 SECONDS, CPU UTILIZATION IS    87.41%
 NO GRADIENT, SCF DID NOT CONVERGE

 BEGINNING ONE ELECTRON GRADIENT...
 TIME TO DO     ESPF GRADIENT INTEGRALS=    434.70
 ..... END OF 1-ELECTRON GRADIENT ......
 CPU     0: STEP CPU TIME=     0.03 TOTAL CPU TIME=        434.7 (      7.2 MIN)
 TOTAL WALL CLOCK TIME=        497.3 SECONDS, CPU UTILIZATION IS    87.40%

          ----------------------
          GRADIENT OF THE ENERGY
          ----------------------
 MEMORY FOR GRID POINT CONTRIBUTIONS TO THE DFT GRADIENT=    593209 WORDS.
 ==> REKS DFT XC gradient: microstate 1 done; CL( 1) =  0.50000000
 ==> REKS DFT XC gradient: microstate 2 done; CL( 2) =  0.00000000
 ==> REKS DFT XC gradient: microstate 3 done; CL( 3) =  0.50000000
 ==> REKS DFT XC gradient: microstate 4 done; CL( 4) = -0.25000000
 CPU     0: STEP CPU TIME=     1.41 TOTAL CPU TIME=        436.1 (      7.3 MIN)
 TOTAL WALL CLOCK TIME=        498.9 SECONDS, CPU UTILIZATION IS    87.41%

 THE MINIMUM MEMORY REQUIRED FOR THIS RUN IS     823352 WORDS.
 USING    3107582 WORDS FOR 2E- DERIVATIVE INTEGRAL CONTRIBUTIONS.
 ==> REKS 2e gradient: microstate 1 done; CL( 1) =  0.50000000 CLSA( 1) =  0.50000000
 ==> REKS 2e gradient: microstate 2 done; CL( 2) =  0.00000000 CLSA( 2) =  0.00000000
 ==> REKS 2e gradient: microstate 3 done; CL( 3) =  0.50000000 CLSA( 3) =  0.50000000
 ==> REKS 2e gradient: microstate 4 done; CL( 4) = -0.25000000 CLSA( 4) = -0.25000000
 THE COARSE/FINE SCHWARZ SCREENINGS SKIPPED    955653157/   501299506 BLOCKS.
 THE NUMBER OF GRADIENT INTEGRAL BLOCKS COMPUTED WAS2433396674
 ...... END OF 2-ELECTRON GRADIENT ......
 CPU     0: STEP CPU TIME=    44.83 TOTAL CPU TIME=        480.9 (      8.0 MIN)
 TOTAL WALL CLOCK TIME=        544.1 SECONDS, CPU UTILIZATION IS    88.40%

                         ----------------------
                         GRADIENT OF THE ENERGY
                         ----------------------

 UNITS ARE HARTREE/BOHR    E'X               E'Y               E'Z 
    1 TI               8.520000256     -17.824193626       0.691238249
    2 TI             -20.981330205     -20.532212055      -5.550843359
    3 O                9.604234887       6.605023225      -5.094196454
    4 O                2.834156455      -2.046009223       3.812480983
    5 O                1.298633580     -13.438024979      -0.698758332
    6 O              -68.400734734      -4.105980270       0.584981920
    7 TI             379.186614449      77.846724543      38.158958040
    8 O              -12.943129874     -42.022151146       0.952345586
    9 TI              13.071320631     -18.693136220       4.902522019
   10 O               39.847983488      -1.080172650       2.121090680
   11 O             -940.792684779     276.070493457     -98.311693567
   12 O              588.754935849    -240.780361056      58.431874235

                   MAXIMUM GRADIENT =  940.792684779
                       RMS GRADIENT =  206.875850915
  $VIB   
          IVIB=   0 IATOM=   0 ICOORD=   0 E=        0.0000000000
  8.520000256E+00-1.782419363E+01 6.912382486E-01-2.098133020E+01-2.053221206E+01
 -5.550843359E+00 9.604234887E+00 6.605023225E+00-5.094196454E+00 2.834156455E+00
 -2.046009223E+00 3.812480983E+00 1.298633580E+00-1.343802498E+01-6.987583321E-01
 -6.840073473E+01-4.105980270E+00 5.849819205E-01 3.791866144E+02 7.784672454E+01
  3.815895804E+01-1.294312987E+01-4.202215115E+01 9.523455864E-01 1.307132063E+01
 -1.869313622E+01 4.902522019E+00 3.984798349E+01-1.080172650E+00 2.121090680E+00
 -9.407926848E+02 2.760704935E+02-9.831169357E+01 5.887549358E+02-2.407803611E+02
  5.843187423E+01
 -1.646989912E+02-6.718835236E+02 2.254944891E+02

..... END OF SINGLE POINT GRADIENT .....
 CPU     0: STEP CPU TIME=     0.00 TOTAL CPU TIME=        480.9 (      8.0 MIN)
 TOTAL WALL CLOCK TIME=        544.1 SECONDS, CPU UTILIZATION IS    88.40%
               3107726  WORDS OF DYNAMIC MEMORY USED
 EXECUTION OF GAMESS TERMINATED NORMALLY Fri Jun 30 08:48:47 2023
 DDI: 263640 bytes (0.3 MB / 0 MWords) used by master data server.

 ----------------------------------------
 CPU timing information for all processes
 ========================================
 0: 446.426 + 34.545 = 480.971
 1: 435.859 + 31.909 = 467.769
 2: 450.39 + 30.99 = 480.138
 3: 401.703 + 29.886 = 431.590
 4: 441.423 + 31.616 = 473.40
 5: 432.519 + 29.547 = 462.66
 6: 415.865 + 29.708 = 445.573
 7: 424.617 + 28.914 = 453.531
 8: 394.863 + 26.245 = 421.109
 9: 434.725 + 31.11 = 465.737
 10: 426.14 + 30.242 = 456.257
 11: 408.441 + 31.02 = 439.443
 ----------------------------------------
 ddikick.x: exited gracefully.
unset echo
----- accounting info -----
Files used on the master node cpn-p27-17.compute.cbls.ccr.buffalo.edu were:
-rw-rw-r-- 1 mrecio mrecio   1239975 Jun 30 08:48 /user/mrecio/work-dir/gam-scr/tme_00_gms.dat
-rw-rw-r-- 1 mrecio mrecio   1236395 Jun 30 08:39 /user/mrecio/work-dir/gam-scr/tme_00_gms.F05
-rw-rw-r-- 1 mrecio mrecio 714287616 Jun 30 08:41 /user/mrecio/work-dir/gam-scr/tme_00_gms.F08
-rw-rw-r-- 1 mrecio mrecio 787252480 Jun 30 08:41 /user/mrecio/work-dir/gam-scr/tme_00_gms.F08.001
-rw-rw-r-- 1 mrecio mrecio 835495696 Jun 30 08:41 /user/mrecio/work-dir/gam-scr/tme_00_gms.F08.002
-rw-rw-r-- 1 mrecio mrecio 678765248 Jun 30 08:41 /user/mrecio/work-dir/gam-scr/tme_00_gms.F08.003
-rw-rw-r-- 1 mrecio mrecio 805733712 Jun 30 08:41 /user/mrecio/work-dir/gam-scr/tme_00_gms.F08.004
-rw-rw-r-- 1 mrecio mrecio 781252080 Jun 30 08:41 /user/mrecio/work-dir/gam-scr/tme_00_gms.F08.005
-rw-rw-r-- 1 mrecio mrecio 722928192 Jun 30 08:41 /user/mrecio/work-dir/gam-scr/tme_00_gms.F08.006
-rw-rw-r-- 1 mrecio mrecio 754610304 Jun 30 08:41 /user/mrecio/work-dir/gam-scr/tme_00_gms.F08.007
-rw-rw-r-- 1 mrecio mrecio 665564368 Jun 30 08:41 /user/mrecio/work-dir/gam-scr/tme_00_gms.F08.008
-rw-rw-r-- 1 mrecio mrecio 783652240 Jun 30 08:41 /user/mrecio/work-dir/gam-scr/tme_00_gms.F08.009
-rw-rw-r-- 1 mrecio mrecio 757730512 Jun 30 08:41 /user/mrecio/work-dir/gam-scr/tme_00_gms.F08.010
-rw-rw-r-- 1 mrecio mrecio 708767248 Jun 30 08:41 /user/mrecio/work-dir/gam-scr/tme_00_gms.F08.011
-rw-rw-r-- 1 mrecio mrecio  68812800 Jun 30 08:48 /user/mrecio/work-dir/gam-scr/tme_00_gms.F10
-rw-rw-r-- 1 mrecio mrecio   1678576 Jun 30 08:48 /user/mrecio/work-dir/gam-scr/tme_00_gms.F22
-rw-rw-r-- 1 mrecio mrecio   1678576 Jun 30 08:48 /user/mrecio/work-dir/gam-scr/tme_00_gms.F22.001
-rw-rw-r-- 1 mrecio mrecio   1678576 Jun 30 08:48 /user/mrecio/work-dir/gam-scr/tme_00_gms.F22.002
-rw-rw-r-- 1 mrecio mrecio   1678576 Jun 30 08:48 /user/mrecio/work-dir/gam-scr/tme_00_gms.F22.003
-rw-rw-r-- 1 mrecio mrecio   1678576 Jun 30 08:48 /user/mrecio/work-dir/gam-scr/tme_00_gms.F22.004
-rw-rw-r-- 1 mrecio mrecio   1678576 Jun 30 08:48 /user/mrecio/work-dir/gam-scr/tme_00_gms.F22.005
-rw-rw-r-- 1 mrecio mrecio   1678576 Jun 30 08:48 /user/mrecio/work-dir/gam-scr/tme_00_gms.F22.006
-rw-rw-r-- 1 mrecio mrecio   1678576 Jun 30 08:48 /user/mrecio/work-dir/gam-scr/tme_00_gms.F22.007
-rw-rw-r-- 1 mrecio mrecio   1678576 Jun 30 08:48 /user/mrecio/work-dir/gam-scr/tme_00_gms.F22.008
-rw-rw-r-- 1 mrecio mrecio   1678576 Jun 30 08:48 /user/mrecio/work-dir/gam-scr/tme_00_gms.F22.009
-rw-rw-r-- 1 mrecio mrecio   1678576 Jun 30 08:48 /user/mrecio/work-dir/gam-scr/tme_00_gms.F22.010
-rw-rw-r-- 1 mrecio mrecio   1678576 Jun 30 08:48 /user/mrecio/work-dir/gam-scr/tme_00_gms.F22.011
ls: No match.
ls: No match.
ls: No match.
Fri Jun 30 08:48:51 EDT 2023
0.218u 0.975s 9:08.69 0.2%	0+0k 0+2608io 0pf+0w
