----- GAMESS execution script 'rungms' -----
This job is running on host cpn-p27-16.compute.cbls.ccr.buffalo.edu
under operating system Linux at Fri Jun 16 15:06:19 EDT 2023
Available scratch disk space (Kbyte units) at beginning of the job is
Filesystem                      1K-blocks    Used Available Use% Mounted on
vast.cbls.ccr.buffalo.edu:/user  10742784 2056192   8686592  20% /user
GAMESS temporary binary files will be written to /user/mofaruque/work-dir/gam-scr
GAMESS supplementary output files will be written to /user/mofaruque/work-dir/gam-scr
Copying input file tme-00-rhf.inp to your run's scratch directory...
cp tme-00-rhf.inp /user/mofaruque/work-dir/gam-scr/tme-00-rhf.F05
unset echo
 
Assuming a single but multicore node.
 
/projects/academic/cyberwksp21/Software/gamess-2018/qmmm-reks-2018-6.3/ddikick.x /projects/academic/cyberwksp21/Software/gamess-2018/qmmm-reks-2018-6.3/gamess.01.x tme-00-rhf -ddi 1 12 cpn-p27-16.compute.cbls.ccr.buffalo.edu:cpus=12 -scr /user/mofaruque/work-dir/gam-scr

 Distributed Data Interface kickoff program.
 Initiating 12 compute processes on 1 nodes to run the following command:
 /projects/academic/cyberwksp21/Software/gamess-2018/qmmm-reks-2018-6.3/gamess.01.x tme-00-rhf 

          ******************************************************
          *         GAMESS VERSION = 30 SEP 2018 (R3)         *
          *             FROM IOWA STATE UNIVERSITY             *
          * M.W.SCHMIDT, K.K.BALDRIDGE, J.A.BOATZ, S.T.ELBERT, *
          *   M.S.GORDON, J.H.JENSEN, S.KOSEKI, N.MATSUNAGA,   *
          *          K.A.NGUYEN, S.J.SU, T.L.WINDUS,           *
          *       TOGETHER WITH M.DUPUIS, J.A.MONTGOMERY       *
          *         J.COMPUT.CHEM.  14, 1347-1363(1993)        *
          **************** 64 BIT INTEL VERSION ****************

  SINCE 1993, STUDENTS AND POSTDOCS WORKING AT IOWA STATE UNIVERSITY
  AND ALSO IN THEIR VARIOUS JOBS AFTER LEAVING ISU HAVE MADE IMPORTANT
  CONTRIBUTIONS TO THE CODE:
     IVANA ADAMOVIC, CHRISTINE AIKENS, YURI ALEXEEV, POOJA ARORA,
     ANDREY ASADCHEV, ROB BELL, PRADIPTA BANDYOPADHYAY, JONATHAN BENTZ,
     BRETT BODE, KURT BRORSEN, CALEB CARLIN, GALINA CHABAN, WEI CHEN,
     CHEOL HO CHOI, PAUL DAY, ALBERT DEFUSCO, NUWAN DESILVA, TIM DUDLEY,
     DMITRI FEDOROV, ALEX FINDLATER, GRAHAM FLETCHER, MARK FREITAG,
     KURT GLAESEMANN, ANASTASIA GUNINA,
     DAN KEMP, GRANT MERRILL, NORIYUKI MINEZAWA, JONATHAN MULLIN,
     TAKESHI NAGATA, SEAN NEDD, HEATHER NETZLOFF, BOSILJKA NJEGIC, RYAN OLSON,
     MIKE PAK, BUU PHAM,
     SPENCER PRUITT, LUKE ROSKOP, JIM SHOEMAKER, LYUDMILA SLIPCHENKO,
     TONY SMITH, SAROM SOK LEANG, JIE SONG, TETSUYA TAKETSUGU, SIMON WEBB,
     PENG XU, SOOHAENG YOO, FEDERICO ZAHARIEV

  ADDITIONAL CODE HAS BEEN PROVIDED BY COLLABORATORS IN OTHER GROUPS:
     IOWA STATE UNIVERSITY:
          JOE IVANIC, AARON WEST, LAIMUTIS BYTAUTAS, KLAUS RUEDENBERG
     UNIVERSITY OF TOKYO: KIMIHIKO HIRAO, TAKAHITO NAKAJIMA,
          TAKAO TSUNEDA, MUNEAKI KAMIYA, SUSUMU YANAGISAWA,
          KIYOSHI YAGI, MAHITO CHIBA, SEIKEN TOKURA, NAOAKI KAWAKAMI
     UNIVERSITY OF AARHUS: FRANK JENSEN
     UNIVERSITY OF IOWA: VISVALDAS KAIRYS, HUI LI
     NATIONAL INST. OF STANDARDS AND TECHNOLOGY: WALT STEVENS, DAVID GARMER
     UNIVERSITY OF PISA: BENEDETTA MENNUCCI, JACOPO TOMASI
     UNIVERSITY OF MEMPHIS: HENRY KURTZ, PRAKASHAN KORAMBATH
     UNIVERSITY OF ALBERTA: TOBY ZENG, MARIUSZ KLOBUKOWSKI
     UNIVERSITY OF NEW ENGLAND: MARK SPACKMAN
     MIE UNIVERSITY: HIROAKI UMEDA
     NAT. INST. OF ADVANCED INDUSTRIAL SCIENCE AND TECHNOLOGY: KAZUO KITAURA
     MICHIGAN STATE UNIVERSITY:
          KAROL KOWALSKI, MARTA WLOCH, JEFFREY GOUR, JESSE LUTZ,
          WEI LI, JUN SHEN, J. EMILIANO DEUSTUA, PIOTR PIECUCH
     UNIVERSITY OF MINNESOTA:
          YINAN SHU
     UNIVERSITY OF SILESIA: MONIKA MUSIAL, STANISLAW KUCHARSKI
     FACULTES UNIVERSITAIRES NOTRE-DAME DE LA PAIX:
          OLIVIER QUINET, BENOIT CHAMPAGNE
     UNIVERSITY OF CALIFORNIA - SANTA BARBARA: BERNARD KIRTMAN
     INSTITUTE FOR MOLECULAR SCIENCE:
          KAZUYA ISHIMURA, MICHIO KATOUDA, AND SHIGERU NAGASE
     UNIVERSITY OF NOTRE DAME: ANNA POMOGAEVA, DAN CHIPMAN
     KYUSHU UNIVERSITY:
          HARUYUKI NAKANO,
          FENG LONG GU, JACEK KORCHOWIEC, MARCIN MAKOWSKI, AND YURIKO AOKI,
          HIROTOSHI MORI AND EISAKU MIYOSHI
     PENNSYLVANIA STATE UNIVERSITY:
          TZVETELIN IORDANOV, CHET SWALINA, JONATHAN SKONE,
          SHARON HAMMES-SCHIFFER
     WASEDA UNIVERSITY:
          MASATO KOBAYASHI, TOMOKO AKAMA, TSUGUKI TOUMA,
          TAKESHI YOSHIKAWA, YASUHIRO IKABATA, JUNJI SEINO,
          YUYA NAKAJIMA, HIROMI NAKAI
     NANJING UNIVERSITY: SHUHUA LI
     UNIVERSITY OF NEBRASKA:
          PEIFENG SU, DEJUN SI, NANDUN THELLAMUREGE, YALI WANG, HUI LI
     UNIVERSITY OF ZURICH: ROBERTO PEVERATI, KIM BALDRIDGE
     N. COPERNICUS UNIVERSITY AND JACKSON STATE UNIVERSITY:
          MARIA BARYSZ
     UNIVERSITY OF COPENHAGEN: Jimmy Kromann, CASPER STEINMANN
     TOKYO INSTITUTE OF TECHNOLOGY: HIROYA NAKATA
     NAGOYA UNIVERSITY: YOSHIO NISHIMOTO, STEPHAN IRLE
     MOSCOW STATE UNIVERSITY: VLADIMIR MIRONOV


 PARALLEL VERSION RUNNING ON       12 PROCESSORS IN        1 NODES.

 EXECUTION OF GAMESS BEGUN Fri Jun 16 15:06:20 2023

            ECHO OF THE FIRST FEW INPUT CARDS -
 INPUT CARD> $contrl scftyp=rhf runtyp=energy dfttyp=bhhlyp icharg=0                        
 INPUT CARD>         maxit=500 mult=1                                                       
 INPUT CARD> $end                                                                           
 INPUT CARD> $dft sg1=.true. $end                                                           
 INPUT CARD> $scf                                                                           
 INPUT CARD> nconv=6                                                                        
 INPUT CARD> npunch=2                                                                       
 INPUT CARD> $end                                                                           
 INPUT CARD>$reks                                                                           
 INPUT CARD> rexType=2                                                                      
 INPUT CARD> rexTarget=1                                                                    
 INPUT CARD>wpps=0.95                                                                       
 INPUT CARD>rexShift=0.7                                                                    
 INPUT CARD>rexDIIS=no                                                                      
 INPUT CARD>$end                                                                            
 INPUT CARD> $basis gbasis=n31 ngauss=6 ndfunc=1 $end                                       
 INPUT CARD> !!! $guess guess=moread norb=106 $end                                          
 INPUT CARD> $system timlim=999999100 mwords=700 $end                                       
 INPUT CARD> $data                                                                          
 INPUT CARD>TME planar S0 state                                                             
 INPUT CARD> c1                                                                             
 INPUT CARD>C   6.0     0.000000000000       -0.000000887764        0.751312283093          
 INPUT CARD>C   6.0     0.000000000000       -0.000000645364       -0.751327135907          
 INPUT CARD>C   6.0    -0.000000000000        1.186878101336        1.451799611793          
 INPUT CARD>C   6.0     0.000000000000       -1.186878282564        1.451803515393          
 INPUT CARD>C   6.0    -0.000000000000        1.186885177136       -1.451800962507          
 INPUT CARD>C   6.0     0.000000000000       -1.186883761364       -1.451803381707          
 INPUT CARD>H   1.0     0.000000000000        1.173249270836        2.528163853193          
 INPUT CARD>H   1.0     0.000000000000        2.152999666336        0.985191204593          
 INPUT CARD>H   1.0    -0.000000000000       -1.173266420964       -2.528167756607          
 INPUT CARD>H   1.0    -0.000000000000       -2.153001517064       -0.985186618607          
 INPUT CARD>H   1.0     0.000000000000        1.173267239736       -2.528165752207          
 INPUT CARD>H   1.0     0.000000000000        2.153000372336       -0.985180620507          
 INPUT CARD>H   1.0    -0.000000000000       -1.173247895964        2.528167291793          
 INPUT CARD>H   1.0    -0.000000000000       -2.153000416664        0.985194468193          
 INPUT CARD> $end                                                                           
  700000000 WORDS OF MEMORY AVAILABLE

 ERROR: MAXIT MUST BE BETWEEN 0 AND 200, NOT     500

     BASIS OPTIONS
     -------------
     GBASIS=N31          IGAUSS=       6      POLAR=POPN31  
     NDFUNC=       1     NFFUNC=       0     DIFFSP=       F
     NPFUNC=       0      DIFFS=       F     BASNAM=        


     RUN TITLE
     ---------
 TME planar S0 state                                                             

 THE POINT GROUP OF THE MOLECULE IS C1      
 THE ORDER OF THE PRINCIPAL AXIS IS     0

 ATOM      ATOMIC                      COORDINATES (BOHR)
           CHARGE         X                   Y                   Z
 C           6.0     0.0000000000       -0.0000016776        1.4197743463
 C           6.0     0.0000000000       -0.0000012196       -1.4198024140
 C           6.0     0.0000000000        2.2428743924        2.7435034554
 C           6.0     0.0000000000       -2.2428747348        2.7435108321
 C           6.0     0.0000000000        2.2428877637       -2.7435060078
 C           6.0     0.0000000000       -2.2428850883       -2.7435105795
 H           1.0     0.0000000000        2.2171196372        4.7775369346
 H           1.0     0.0000000000        4.0685794210        1.8617414222
 H           1.0     0.0000000000       -2.2171520462       -4.7775443110
 H           1.0     0.0000000000       -4.0685829184       -1.8617327559
 H           1.0     0.0000000000        2.2171535935       -4.7775405232
 H           1.0     0.0000000000        4.0685807552       -1.8617214212
 H           1.0     0.0000000000       -2.2171170390        4.7775434326
 H           1.0     0.0000000000       -4.0685808389        1.8617475895

          INTERNUCLEAR DISTANCES (ANGS.)
          ------------------------------

                1 C          2 C          3 C          4 C          5 C     

   1 C       0.0000000    1.5026394 *  1.3781742 *  1.3781748 *  2.5024801 *
   2 C       1.5026394 *  0.0000000    2.5024885 *  2.5024914 *  1.3781733 *
   3 C       1.3781742 *  2.5024885 *  0.0000000    2.3737564 *  2.9036006 *
   4 C       1.3781748 *  2.5024914 *  2.3737564 *  0.0000000    3.7504229  
   5 C       2.5024801 *  1.3781733 *  2.9036006 *  3.7504229    0.0000000  
   6 C       2.5024807 *  1.3781722 *  3.7504207    2.9036069 *  2.3737689 *
   7 H       2.1292528 *  3.4830413    1.0764505 *  2.5939841 *  3.9799882  
   8 H       2.1656663 *  2.7660272 *  1.0728999 *  3.3723155    2.6215087 *
   9 H       3.4830362    2.1292523 *  4.6271398    3.9799945    2.5940087 *
  10 H       2.7660152 *  2.1656646 *  4.1344525    2.6215101 *  3.3723244  
  11 H       3.4830352    2.1292517 *  3.9799886    4.6271419    1.0764509 *
  12 H       2.7660119 *  2.1656641 *  2.6215005 *  4.1344505    1.0728994 *
  13 H       2.1292539 *  3.4830436    2.5939858 *  1.0764501 *  4.6271347  
  14 H       2.1656657 *  2.7660288 *  3.3723151    1.0729007 *  4.1344628  

                6 C          7 H          8 H          9 H         10 H     

   1 C       2.5024807 *  2.1292528 *  2.1656663 *  3.4830362    2.7660152 *
   2 C       1.3781722 *  3.4830413    2.7660272 *  2.1292523 *  2.1656646 *
   3 C       3.7504207    1.0764505 *  1.0728999 *  4.6271398    4.1344525  
   4 C       2.9036069 *  2.5939841 *  3.3723155    3.9799945    2.6215101 *
   5 C       2.3737689 *  3.9799882    2.6215087 *  2.5940087 *  3.3723244  
   6 C       0.0000000    4.6271338    4.1344605    1.0764505 *  1.0729001 *
   7 H       4.6271338    0.0000000    1.8277515 *  5.5742825    4.8381376  
   8 H       4.1344605    1.8277515 *  0.0000000    4.8381543    4.7354023  
   9 H       1.0764505 *  5.5742825    4.8381543    0.0000000    1.8277504 *
  10 H       1.0729001 *  4.8381376    4.7354023    1.8277504 *  0.0000000  
  11 H       2.5940063 *  5.0563296    3.6474036    2.3465337 *  3.6667218  
  12 H       3.3723231    3.6473966    1.9703718 *  3.6667233    4.3060019  
  13 H       3.9799940    2.3464972 *  3.6667012    5.0563350    3.6474063  
  14 H       2.6215148 *  3.6667004    4.3060001    3.6474091    1.9703811 *

               11 H         12 H         13 H         14 H     

   1 C       3.4830352    2.7660119 *  2.1292539 *  2.1656657 *
   2 C       2.1292517 *  2.1656641 *  3.4830436    2.7660288 *
   3 C       3.9799886    2.6215005 *  2.5939858 *  3.3723151  
   4 C       4.6271419    4.1344505    1.0764501 *  1.0729007 *
   5 C       1.0764509 *  1.0728994 *  4.6271347    4.1344628  
   6 C       2.5940063 *  3.3723231    3.9799940    2.6215148 *
   7 H       5.0563296    3.6473966    2.3464972 *  3.6667004  
   8 H       3.6474036    1.9703718 *  3.6667012    4.3060001  
   9 H       2.3465337 *  3.6667233    5.0563350    3.6474091  
  10 H       3.6667218    4.3060019    3.6474063    1.9703811 *
  11 H       0.0000000    1.8277528 *  5.5742836    4.8381563  
  12 H       1.8277528 *  0.0000000    4.8381341    4.7354008  
  13 H       5.5742836    4.8381341    0.0000000    1.8277528 *
  14 H       4.8381563    4.7354008    1.8277528 *  0.0000000  

  * ... LESS THAN  3.000


     ATOMIC BASIS SET
     ----------------
 THE CONTRACTED PRIMITIVE FUNCTIONS HAVE BEEN UNNORMALIZED
 THE CONTRACTED BASIS FUNCTIONS ARE NOW NORMALIZED TO UNITY

  SHELL TYPE  PRIMITIVE        EXPONENT          CONTRACTION COEFFICIENT(S)

 C         

      1   S       1          3047.5248800    0.001834737132
      1   S       2           457.3695180    0.014037322813
      1   S       3           103.9486850    0.068842622264
      1   S       4            29.2101553    0.232184443216
      1   S       5             9.2866630    0.467941348435
      1   S       6             3.1639270    0.362311985337

      2   L       7             7.8682723   -0.119332419775    0.068999066591
      2   L       8             1.8812885   -0.160854151696    0.316423960957
      2   L       9             0.5442493    1.143456437840    0.744308290898

      3   L      10             0.1687145    1.000000000000    1.000000000000

      4   D      11             0.8000000    1.000000000000

 C         

      5   S      12          3047.5248800    0.001834737132
      5   S      13           457.3695180    0.014037322813
      5   S      14           103.9486850    0.068842622264
      5   S      15            29.2101553    0.232184443216
      5   S      16             9.2866630    0.467941348435
      5   S      17             3.1639270    0.362311985337

      6   L      18             7.8682723   -0.119332419775    0.068999066591
      6   L      19             1.8812885   -0.160854151696    0.316423960957
      6   L      20             0.5442493    1.143456437840    0.744308290898

      7   L      21             0.1687145    1.000000000000    1.000000000000

      8   D      22             0.8000000    1.000000000000

 C         

      9   S      23          3047.5248800    0.001834737132
      9   S      24           457.3695180    0.014037322813
      9   S      25           103.9486850    0.068842622264
      9   S      26            29.2101553    0.232184443216
      9   S      27             9.2866630    0.467941348435
      9   S      28             3.1639270    0.362311985337

     10   L      29             7.8682723   -0.119332419775    0.068999066591
     10   L      30             1.8812885   -0.160854151696    0.316423960957
     10   L      31             0.5442493    1.143456437840    0.744308290898

     11   L      32             0.1687145    1.000000000000    1.000000000000

     12   D      33             0.8000000    1.000000000000

 C         

     13   S      34          3047.5248800    0.001834737132
     13   S      35           457.3695180    0.014037322813
     13   S      36           103.9486850    0.068842622264
     13   S      37            29.2101553    0.232184443216
     13   S      38             9.2866630    0.467941348435
     13   S      39             3.1639270    0.362311985337

     14   L      40             7.8682723   -0.119332419775    0.068999066591
     14   L      41             1.8812885   -0.160854151696    0.316423960957
     14   L      42             0.5442493    1.143456437840    0.744308290898

     15   L      43             0.1687145    1.000000000000    1.000000000000

     16   D      44             0.8000000    1.000000000000

 C         

     17   S      45          3047.5248800    0.001834737132
     17   S      46           457.3695180    0.014037322813
     17   S      47           103.9486850    0.068842622264
     17   S      48            29.2101553    0.232184443216
     17   S      49             9.2866630    0.467941348435
     17   S      50             3.1639270    0.362311985337

     18   L      51             7.8682723   -0.119332419775    0.068999066591
     18   L      52             1.8812885   -0.160854151696    0.316423960957
     18   L      53             0.5442493    1.143456437840    0.744308290898

     19   L      54             0.1687145    1.000000000000    1.000000000000

     20   D      55             0.8000000    1.000000000000

 C         

     21   S      56          3047.5248800    0.001834737132
     21   S      57           457.3695180    0.014037322813
     21   S      58           103.9486850    0.068842622264
     21   S      59            29.2101553    0.232184443216
     21   S      60             9.2866630    0.467941348435
     21   S      61             3.1639270    0.362311985337

     22   L      62             7.8682723   -0.119332419775    0.068999066591
     22   L      63             1.8812885   -0.160854151696    0.316423960957
     22   L      64             0.5442493    1.143456437840    0.744308290898

     23   L      65             0.1687145    1.000000000000    1.000000000000

     24   D      66             0.8000000    1.000000000000

 H         

     25   S      67            18.7311370    0.033494604338
     25   S      68             2.8253944    0.234726953484
     25   S      69             0.6401217    0.813757326146

     26   S      70             0.1612778    1.000000000000

 H         

     27   S      71            18.7311370    0.033494604338
     27   S      72             2.8253944    0.234726953484
     27   S      73             0.6401217    0.813757326146

     28   S      74             0.1612778    1.000000000000

 H         

     29   S      75            18.7311370    0.033494604338
     29   S      76             2.8253944    0.234726953484
     29   S      77             0.6401217    0.813757326146

     30   S      78             0.1612778    1.000000000000

 H         

     31   S      79            18.7311370    0.033494604338
     31   S      80             2.8253944    0.234726953484
     31   S      81             0.6401217    0.813757326146

     32   S      82             0.1612778    1.000000000000

 H         

     33   S      83            18.7311370    0.033494604338
     33   S      84             2.8253944    0.234726953484
     33   S      85             0.6401217    0.813757326146

     34   S      86             0.1612778    1.000000000000

 H         

     35   S      87            18.7311370    0.033494604338
     35   S      88             2.8253944    0.234726953484
     35   S      89             0.6401217    0.813757326146

     36   S      90             0.1612778    1.000000000000

 H         

     37   S      91            18.7311370    0.033494604338
     37   S      92             2.8253944    0.234726953484
     37   S      93             0.6401217    0.813757326146

     38   S      94             0.1612778    1.000000000000

 H         

     39   S      95            18.7311370    0.033494604338
     39   S      96             2.8253944    0.234726953484
     39   S      97             0.6401217    0.813757326146

     40   S      98             0.1612778    1.000000000000

 TOTAL NUMBER OF BASIS SET SHELLS             =   40
 NUMBER OF CARTESIAN GAUSSIAN BASIS FUNCTIONS =  106
 NUMBER OF ELECTRONS                          =   44
 CHARGE OF MOLECULE                           =    0
 SPIN MULTIPLICITY                            =    1
 NUMBER OF OCCUPIED ORBITALS (ALPHA)          =   22
 NUMBER OF OCCUPIED ORBITALS (BETA )          =   22
 TOTAL NUMBER OF ATOMS                        =   14
 THE NUCLEAR REPULSION ENERGY IS      208.5782199871
 THE NUCLEAR REPULSION ENERGY IS      208.5782199871

     STANDARD GRID ONE (SG-1) PRUNED GRID OPTIONS
     -------------------------------------------
     DFTTYP=BHHLYP  
     GRID HAS 50 RADIAL POINTS AND AT MOST
      194 ANGULAR POINTS, BEFORE PRUNING
     SWOFF =    5.00E-03 (PURE SCF -> DFT)
     COARSE GRID SWITCHING IS NOT AVAILABLE
     THRESH=    0.00E+00 GTHRE=    1.00E+00

 GRIMME'S EMPIRICAL DISPERSION CORRECTION= F

     $CONTRL OPTIONS
     ---------------
 SCFTYP=RHF          RUNTYP=ENERGY       EXETYP=RUN     
 MPLEVL=       0     CITYP =NONE         CCTYP =NONE         VBTYP =NONE    
 DFTTYP=BHHLYP       TDDFT =NONE    
 MULT  =       1     ICHARG=       0     NZVAR =       0     COORD =UNIQUE  
 PP    =NONE         RELWFN=NONE         LOCAL =NONE         NUMGRD=       F
 ISPHER=      -1     NOSYM =       0     MAXIT =     500     UNITS =ANGS    
 PLTORB=       F     MOLPLT=       F     AIMPAC=       F     FRIEND=        
 NPRINT=       7     IREST =       0     GEOM  =INPUT   
 NORMF =       0     NORMP =       0     ITOL  =      20     ICUT  =       9
 INTTYP=BEST         GRDTYP=BEST         QMTTOL= 1.0E-06

     $SYSTEM OPTIONS
     ---------------
  REPLICATED MEMORY=   700000000 WORDS (ON EVERY NODE).
 DISTRIBUTED MEMDDI=           0 MILLION WORDS IN AGGREGATE,
 MEMDDI DISTRIBUTED OVER  12 PROCESSORS IS           0 WORDS/PROCESSOR.
 TOTAL MEMORY REQUESTED ON EACH PROCESSOR=   700000000 WORDS.
 TIMLIM=   999999100.00 MINUTES, OR  694443.8 DAYS.
 PARALL= T  BALTYP=  DLB     KDIAG=    0  COREFL= F
 MXSEQ2=     300 MXSEQ3=     150  mem10=         0

          ----------------
          PROPERTIES INPUT
          ----------------

     MOMENTS            FIELD           POTENTIAL          DENSITY
 IEMOM =       1   IEFLD =       0   IEPOT =       0   IEDEN =       0
 WHERE =COMASS     WHERE =NUCLEI     WHERE =NUCLEI     WHERE =NUCLEI  
 OUTPUT=BOTH       OUTPUT=BOTH       OUTPUT=BOTH       OUTPUT=BOTH    
 IEMINT=       0   IEFINT=       0                     IEDINT=       0
                                                       MORB  =       0
          EXTRAPOLATION IN EFFECT
          DIIS IN EFFECT
 ORBITAL PRINTING OPTION: NPREO=     1   106     2     1

     -------------------------------
     INTEGRAL TRANSFORMATION OPTIONS
     -------------------------------
     NWORD  =            0
     CUTOFF = 1.0E-09     MPTRAN =       0
     DIRTRF =       F     AOINTS =DUP     

          ----------------------
          INTEGRAL INPUT OPTIONS
          ----------------------
 NOPK  =       1 NORDER=       0 SCHWRZ=       T

     ------------------------------------------
     THE POINT GROUP IS C1 , NAXIS= 0, ORDER= 1
     ------------------------------------------

     DIMENSIONS OF THE SYMMETRY SUBSPACES ARE
 A   =  106

 ..... DONE SETTING UP THE RUN .....
 CPU     0: STEP CPU TIME=     0.04 TOTAL CPU TIME=          0.0 (      0.0 MIN)
 TOTAL WALL CLOCK TIME=          0.1 SECONDS, CPU UTILIZATION IS    50.00%

          ********************
          1 ELECTRON INTEGRALS
          ********************
 ...... END OF ONE-ELECTRON INTEGRALS ......
 CPU     0: STEP CPU TIME=     0.00 TOTAL CPU TIME=          0.0 (      0.0 MIN)
 TOTAL WALL CLOCK TIME=          0.1 SECONDS, CPU UTILIZATION IS    41.67%

          -------------
          GUESS OPTIONS
          -------------
          GUESS =HUCKEL            NORB  =       0          NORDER=       0
          MIX   =       F          PRTMO =       F          PUNMO =       F
          TOLZ  = 1.0E-08          TOLE  = 1.0E-05
          SYMDEN=       F          PURIFY=       F

 INITIAL GUESS ORBITALS GENERATED BY HUCKEL   ROUTINE.
 HUCKEL GUESS REQUIRES     97814 WORDS.

 SYMMETRIES FOR INITIAL GUESS ORBITALS FOLLOW.   BOTH SET(S).
    22 ORBITALS ARE OCCUPIED (    6 CORE ORBITALS).
     7=A        8=A        9=A       10=A       11=A       12=A       13=A   
    14=A       15=A       16=A       17=A       18=A       19=A       20=A   
    21=A       22=A       23=A       24=A       25=A       26=A       27=A   
    28=A       29=A       30=A       31=A       32=A   
 ...... END OF INITIAL ORBITAL SELECTION ......
 CPU     0: STEP CPU TIME=     0.03 TOTAL CPU TIME=          0.1 (      0.0 MIN)
 TOTAL WALL CLOCK TIME=          0.1 SECONDS, CPU UTILIZATION IS    57.14%

                    ----------------------
                    AO INTEGRAL TECHNOLOGY
                    ----------------------
     S,P,L SHELL ROTATED AXIS INTEGRALS, REPROGRAMMED BY
        KAZUYA ISHIMURA (IMS) AND JOSE SIERRA (SYNSTAR).
     S,P,D,L SHELL ROTATED AXIS INTEGRALS PROGRAMMED BY
        KAZUYA ISHIMURA (INSTITUTE FOR MOLECULAR SCIENCE).
     S,P,D,F,G SHELL TO TOTAL QUARTET ANGULAR MOMENTUM SUM 5,
        ERIC PROGRAM BY GRAHAM FLETCHER (ELORET AND NASA ADVANCED
        SUPERCOMPUTING DIVISION, AMES RESEARCH CENTER).
     S,P,D,F,G,L SHELL GENERAL RYS QUADRATURE PROGRAMMED BY
        MICHEL DUPUIS (PACIFIC NORTHWEST NATIONAL LABORATORY).

          --------------------
          2 ELECTRON INTEGRALS
          --------------------

 THE -PK- OPTION IS OFF, THE INTEGRALS ARE NOT IN SUPERMATRIX FORM.
 STORING   15000 INTEGRALS/RECORD ON DISK, USING 12 BYTES/INTEGRAL.
 TWO ELECTRON INTEGRAL EVALUATION REQUIRES   91216 WORDS OF MEMORY.
 SCHWARZ INEQUALITY OVERHEAD:      5663 INTEGRALS, T=        0.00
 II,JST,KST,LST =  1  1  1  1 NREC =         1 INTLOC =    1
 II,JST,KST,LST =  2  1  1  1 NREC =         1 INTLOC =    1
 II,JST,KST,LST =  3  1  1  1 NREC =         1 INTLOC =    1
 II,JST,KST,LST =  4  1  1  1 NREC =         1 INTLOC =    1
 II,JST,KST,LST =  5  1  1  1 NREC =         1 INTLOC =    1
 II,JST,KST,LST =  6  1  1  1 NREC =         1 INTLOC =    1
 II,JST,KST,LST =  7  1  1  1 NREC =         1 INTLOC =    1
 II,JST,KST,LST =  8  1  1  1 NREC =         1 INTLOC =    1
 II,JST,KST,LST =  9  1  1  1 NREC =         1 INTLOC =    1
 II,JST,KST,LST = 10  1  1  1 NREC =         1 INTLOC =    1
 II,JST,KST,LST = 11  1  1  1 NREC =         1 INTLOC =    1
 II,JST,KST,LST = 12  1  1  1 NREC =         1 INTLOC =10146
 II,JST,KST,LST = 13  1  1  1 NREC =         1 INTLOC =10146
 II,JST,KST,LST = 14  1  1  1 NREC =         2 INTLOC = 4795
 II,JST,KST,LST = 15  1  1  1 NREC =         2 INTLOC = 4795
 II,JST,KST,LST = 16  1  1  1 NREC =         2 INTLOC = 4795
 II,JST,KST,LST = 17  1  1  1 NREC =         5 INTLOC = 5279
 II,JST,KST,LST = 18  1  1  1 NREC =         5 INTLOC = 5279
 II,JST,KST,LST = 19  1  1  1 NREC =         5 INTLOC = 5279
 II,JST,KST,LST = 20  1  1  1 NREC =         5 INTLOC =11419
 II,JST,KST,LST = 21  1  1  1 NREC =         8 INTLOC =14388
 II,JST,KST,LST = 22  1  1  1 NREC =         8 INTLOC =14388
 II,JST,KST,LST = 23  1  1  1 NREC =        12 INTLOC = 2894
 II,JST,KST,LST = 24  1  1  1 NREC =        12 INTLOC = 2894
 II,JST,KST,LST = 25  1  1  1 NREC =        20 INTLOC =  891
 II,JST,KST,LST = 26  1  1  1 NREC =        20 INTLOC =  891
 II,JST,KST,LST = 27  1  1  1 NREC =        20 INTLOC =  891
 II,JST,KST,LST = 28  1  1  1 NREC =        20 INTLOC =  891
 II,JST,KST,LST = 29  1  1  1 NREC =        21 INTLOC = 2524
 II,JST,KST,LST = 30  1  1  1 NREC =        21 INTLOC =11634
 II,JST,KST,LST = 31  1  1  1 NREC =        22 INTLOC =10790
 II,JST,KST,LST = 32  1  1  1 NREC =        23 INTLOC = 9324
 II,JST,KST,LST = 33  1  1  1 NREC =        26 INTLOC = 7768
 II,JST,KST,LST = 34  1  1  1 NREC =        26 INTLOC =14802
 II,JST,KST,LST = 35  1  1  1 NREC =        28 INTLOC = 7198
 II,JST,KST,LST = 36  1  1  1 NREC =        30 INTLOC = 1853
 II,JST,KST,LST = 37  1  1  1 NREC =        31 INTLOC =12396
 II,JST,KST,LST = 38  1  1  1 NREC =        32 INTLOC =14920
 II,JST,KST,LST = 39  1  1  1 NREC =        34 INTLOC = 3600
 II,JST,KST,LST = 40  1  1  1 NREC =        35 INTLOC = 3726
 SCHWARZ INEQUALITY TEST SKIPPED       64552 INTEGRAL BLOCKS.
 TOTAL NUMBER OF NONZERO TWO-ELECTRON INTEGRALS =             7446538
        503 INTEGRAL RECORDS WERE STORED ON DISK FILE  8.
  ...... END OF TWO-ELECTRON INTEGRALS .....
 CPU     0: STEP CPU TIME=     0.10 TOTAL CPU TIME=          0.2 (      0.0 MIN)
 TOTAL WALL CLOCK TIME=          0.3 SECONDS, CPU UTILIZATION IS    66.67%

          --------------------------
            R-BHHLYP SCF CALCULATION
          --------------------------

     NUCLEAR ENERGY =       208.5782199871
     MAXIT =  500     NPUNCH=    2
     EXTRAP=T  DAMP=F  SHIFT=F  RSTRCT=F  DIIS=T  DEM=F  SOSCF=F
         DENSITY MATRIX CONVERGENCE THRESHOLD=  1.00E-06
     COARSE -> FINE DFT GRID SWITCH THRESHOLD=  3.00E-04 (SWITCH IN $DFT)
                   HF -> DFT SWITCH THRESHOLD=  5.00E-03 (SWOFF IN $DFT)
     MEMORY REQUIRED FOR RHF ITERS=    477106 WORDS.

     EXCHANGE FUNCTIONAL   =B88&HFX   
     CORRELATION FUNCTIONAL=LYP88     
     DFT THRESHOLD         =.736E-08
 FOR AN EULER-MACLAURIN QUADRATURE USING  50 RADIAL POINTS:
 SMALLEST GAUSSIAN PRIMITIVE EXPONENT=        0.1612777588 OF TYPE -S-
 ON ATOM NUMBER   7 HAS RADIAL NORMALIZATION=  1.000000
  LARGEST GAUSSIAN PRIMITIVE EXPONENT=     3047.5248800000 OF TYPE -S-
 ON ATOM NUMBER   1 HAS RADIAL NORMALIZATION=  1.000000
 DFT IS SWITCHED OFF, PERFORMING PURE SCF UNTIL SWOFF THRESHOLD IS REACHED.

 ITER EX DEM     TOTAL ENERGY        E CHANGE  DENSITY CHANGE    DIIS ERROR
          * * *   INITIATING DIIS PROCEDURE   * * *
   1  0  0     -231.0703366751  -231.0703366751   0.158718990   0.476731664
   2  1  0     -231.6034511751    -0.5331145000   0.082796268   0.098345325
   3  2  0     -231.6326067777    -0.0291556026   0.024671122   0.041442356
   4  3  0     -231.6400031219    -0.0073963442   0.006717550   0.008760783
   5  4  0     -231.6403647416    -0.0003616197   0.001365865   0.002090396
 CONVERGED TO SWOFF, SO DFT CALCULATION IS NOW SWITCHED ON.
          * * *   INITIATING DIIS PROCEDURE   * * *
   6  5  0     -233.0974324157    -1.4570676740   0.071084446   0.058362191
   7  6  0     -233.1093583581    -0.0119259425   0.013958550   0.014273560
   8  7  0     -233.1101879421    -0.0008295839   0.005666459   0.009555517
   9  8  0     -233.1105917440    -0.0004038019   0.001183290   0.001453855
  10  9  0     -233.1105964854    -0.0000047414   0.000958557   0.000596918
  11 10  0     -233.1105961395     0.0000003459   0.000630716   0.000951928
  12 11  0     -233.1105987227    -0.0000025831   0.000071250   0.000086738
  13 12  0     -233.1105987487    -0.0000000260   0.000003623   0.000006246
  14 13  0     -233.1105987488    -0.0000000001   0.000000807   0.000000842
  15 14  0     -233.1105987488    -0.0000000000   0.000000122   0.000000109

          -----------------
          DENSITY CONVERGED
          -----------------
     TIME TO FORM FOCK OPERATORS=       0.4 SECONDS (       0.0 SEC/ITER)
     TIME TO SOLVE SCF EQUATIONS=       0.1 SECONDS (       0.0 SEC/ITER)

 FINAL R-BHHLYP ENERGY IS     -233.1105987488 AFTER  15 ITERATIONS
 DFT EXCHANGE + CORRELATION ENERGY =       -18.3769426233
 TOTAL ELECTRON NUMBER             =        44.0001916642

          ------------
          EIGENVECTORS
          ------------

                      1          2          3          4          5
                  -10.6103   -10.6099   -10.5968   -10.5968   -10.5968
                     A          A          A          A          A   
    1  C  1  S    0.703148  -0.701030  -0.000080  -0.000055  -0.039391
    2  C  1  S    0.028789  -0.028904  -0.000004  -0.000003  -0.001956
    3  C  1  X    0.000000   0.000000   0.000000   0.000000   0.000000
    4  C  1  Y    0.000000  -0.000000   0.000341   0.000140  -0.000001
    5  C  1  Z    0.000106   0.000186  -0.000000  -0.000000  -0.000219
    6  C  1  S   -0.008223   0.015012   0.000014   0.000005   0.006683
    7  C  1  X    0.000000   0.000000   0.000000   0.000000   0.000000
    8  C  1  Y   -0.000000   0.000000  -0.001862  -0.000669   0.000004
    9  C  1  Z   -0.001142  -0.003119  -0.000001   0.000002  -0.000458
   10  C  1 XX   -0.004756   0.004484   0.000000   0.000000   0.000118
   11  C  1 YY   -0.004341   0.003946  -0.000001  -0.000000  -0.000287
   12  C  1 ZZ   -0.004785   0.003899  -0.000000  -0.000000  -0.000211
   13  C  1 XY    0.000000   0.000000   0.000000   0.000000   0.000000
   14  C  1 XZ    0.000000   0.000000   0.000000   0.000000   0.000000
   15  C  1 YZ    0.000000   0.000000   0.000093   0.000063  -0.000000
   16  C  2  S    0.700855   0.703321   0.000052  -0.000072   0.026786
   17  C  2  S    0.028695   0.028997   0.000003  -0.000004   0.001306
   18  C  2  X    0.000000   0.000000   0.000000   0.000000   0.000000
   19  C  2  Y   -0.000000   0.000000   0.000271  -0.000249  -0.000001
   20  C  2  Z   -0.000107   0.000186  -0.000000   0.000000  -0.000154
   21  C  2  S   -0.008172  -0.015039  -0.000010   0.000008  -0.005338
   22  C  2  X    0.000000   0.000000   0.000000   0.000000   0.000000
   23  C  2  Y    0.000000  -0.000000  -0.001513   0.001275   0.000003
   24  C  2  Z    0.001155  -0.003116  -0.000001  -0.000001  -0.000686
   25  C  2 XX   -0.004742  -0.004500  -0.000000   0.000000  -0.000083
   26  C  2 YY   -0.004328  -0.003960   0.000000  -0.000000   0.000203
   27  C  2 ZZ   -0.004772  -0.003914   0.000000  -0.000000   0.000200
   28  C  2 XY    0.000000   0.000000   0.000000   0.000000   0.000000
   29  C  2 XZ    0.000000   0.000000   0.000000   0.000000   0.000000
   30  C  2 YZ    0.000000   0.000000  -0.000066   0.000091   0.000000
   31  C  3  S    0.022558  -0.023490  -0.575670  -0.400605   0.584933
   32  C  3  S    0.000637  -0.000843  -0.023613  -0.016444   0.023845
   33  C  3  X    0.000000   0.000000   0.000000   0.000000   0.000000
   34  C  3  Y    0.000179  -0.000173   0.000086   0.000046  -0.000047
   35  C  3  Z    0.000142  -0.000093  -0.000031   0.000063  -0.000105
   36  C  3  S    0.002709  -0.002646   0.007322   0.004890  -0.007584
   37  C  3  X    0.000000   0.000000   0.000000   0.000000   0.000000
   38  C  3  Y   -0.000977   0.000516  -0.000741  -0.000107  -0.000027
   39  C  3  Z   -0.000607   0.001058  -0.000075  -0.000155   0.000895
   40  C  3 XX   -0.000246   0.000191   0.003934   0.002702  -0.004010
   41  C  3 YY   -0.000364   0.000512   0.003672   0.002549  -0.003541
   42  C  3 ZZ   -0.000320   0.000379   0.003733   0.002543  -0.003707
   43  C  3 XY    0.000000   0.000000   0.000000   0.000000   0.000000
   44  C  3 XZ    0.000000   0.000000   0.000000   0.000000   0.000000
   45  C  3 YZ   -0.000084   0.000090  -0.000039  -0.000051   0.000076
   46  C  4  S    0.022558  -0.023490   0.578052   0.402294   0.582503
   47  C  4  S    0.000637  -0.000843   0.023710   0.016512   0.023745
   48  C  4  X    0.000000   0.000000   0.000000   0.000000   0.000000
   49  C  4  Y   -0.000179   0.000173   0.000086   0.000046   0.000046
   50  C  4  Z    0.000142  -0.000093   0.000030  -0.000063  -0.000105
   51  C  4  S    0.002709  -0.002646  -0.007353  -0.004909  -0.007553
   52  C  4  X    0.000000   0.000000   0.000000   0.000000   0.000000
   53  C  4  Y    0.000977  -0.000516  -0.000741  -0.000107   0.000030
   54  C  4  Z   -0.000607   0.001058   0.000079   0.000154   0.000895
   55  C  4 XX   -0.000246   0.000191  -0.003950  -0.002714  -0.003993
   56  C  4 YY   -0.000364   0.000512  -0.003687  -0.002559  -0.003525
   57  C  4 ZZ   -0.000320   0.000379  -0.003748  -0.002554  -0.003692
   58  C  4 XY    0.000000   0.000000   0.000000   0.000000   0.000000
   59  C  4 XZ    0.000000   0.000000   0.000000   0.000000   0.000000
   60  C  4 YZ    0.000084  -0.000090  -0.000039  -0.000051  -0.000075
   61  C  5  S    0.022482   0.023564  -0.402201   0.577967  -0.389267
   62  C  5  S    0.000635   0.000845  -0.016493   0.023717  -0.015911
   63  C  5  X    0.000000   0.000000   0.000000   0.000000   0.000000
   64  C  5  Y    0.000179   0.000174   0.000065  -0.000073   0.000018
   65  C  5  Z   -0.000141  -0.000093   0.000050   0.000049  -0.000095
   66  C  5  S    0.002701   0.002654   0.005189  -0.007156   0.005334
   67  C  5  X    0.000000   0.000000   0.000000   0.000000   0.000000
   68  C  5  Y   -0.000976  -0.000519  -0.000658   0.000358   0.000094
   69  C  5  Z    0.000603   0.001061   0.000020  -0.000172   0.000876
   70  C  5 XX   -0.000246  -0.000192   0.002761  -0.003917   0.002638
   71  C  5 YY   -0.000363  -0.000513   0.002568  -0.003680   0.002343
   72  C  5 ZZ   -0.000319  -0.000380   0.002627  -0.003696   0.002454
   73  C  5 XY    0.000000   0.000000   0.000000   0.000000   0.000000
   74  C  5 XZ    0.000000   0.000000   0.000000   0.000000   0.000000
   75  C  5 YZ    0.000084   0.000090   0.000019  -0.000062   0.000046
   76  C  6  S    0.022482   0.023564   0.400676  -0.575772  -0.390732
   77  C  6  S    0.000635   0.000845   0.016431  -0.023628  -0.015971
   78  C  6  X    0.000000   0.000000   0.000000   0.000000   0.000000
   79  C  6  Y   -0.000179  -0.000174   0.000065  -0.000073  -0.000018
   80  C  6  Z   -0.000141  -0.000093  -0.000050  -0.000048  -0.000095
   81  C  6  S    0.002701   0.002654  -0.005168   0.007131   0.005353
   82  C  6  X    0.000000   0.000000   0.000000   0.000000   0.000000
   83  C  6  Y    0.000976   0.000519  -0.000658   0.000358  -0.000092
   84  C  6  Z    0.000603   0.001060  -0.000017   0.000171   0.000876
   85  C  6 XX   -0.000246  -0.000192  -0.002750   0.003902   0.002648
   86  C  6 YY   -0.000363  -0.000513  -0.002558   0.003667   0.002353
   87  C  6 ZZ   -0.000319  -0.000380  -0.002617   0.003682   0.002463
   88  C  6 XY    0.000000   0.000000   0.000000   0.000000   0.000000
   89  C  6 XZ    0.000000   0.000000   0.000000   0.000000   0.000000
   90  C  6 YZ   -0.000084  -0.000090   0.000019  -0.000062  -0.000046
   91  H  7  S   -0.000045   0.000010   0.000099   0.000102  -0.000203
   92  H  7  S    0.000002  -0.000077  -0.001398  -0.000892   0.000990
   93  H  8  S   -0.000089   0.000089   0.000192   0.000113  -0.000112
   94  H  8  S   -0.000062   0.000357  -0.001021  -0.001127   0.001902
   95  H  9  S   -0.000045  -0.000011  -0.000058   0.000130   0.000145
   96  H  9  S    0.000001   0.000077   0.001002  -0.001322  -0.000557
   97  H 10  S   -0.000088  -0.000089  -0.000140   0.000173   0.000049
   98  H 10  S   -0.000061  -0.000357   0.000566  -0.001412  -0.001489
   99  H 11  S   -0.000045  -0.000011   0.000058  -0.000131   0.000145
  100  H 11  S    0.000001   0.000077  -0.001004   0.001327  -0.000553
  101  H 12  S   -0.000088  -0.000089   0.000141  -0.000173   0.000049
  102  H 12  S   -0.000061  -0.000357  -0.000572   0.001417  -0.001488
  103  H 13  S   -0.000045   0.000010  -0.000100  -0.000103  -0.000202
  104  H 13  S    0.000002  -0.000077   0.001402   0.000896   0.000984
  105  H 14  S   -0.000089   0.000089  -0.000192  -0.000114  -0.000112
  106  H 14  S   -0.000062   0.000357   0.001029   0.001130   0.001898

                      6          7          8          9         10
                  -10.5968    -0.9547    -0.8753    -0.7926    -0.7496
                     A          A          A          A          A   
    1  C  1  S   -0.025097  -0.128649   0.096154  -0.000000   0.000000
    2  C  1  S   -0.001310   0.252877  -0.192898   0.000000  -0.000000
    3  C  1  X    0.000000   0.000000   0.000000   0.000000   0.000000
    4  C  1  Y   -0.000000   0.000000   0.000000  -0.171767  -0.143252
    5  C  1  Z   -0.000127  -0.011364  -0.113026   0.000000  -0.000000
    6  C  1  S    0.002184   0.131096  -0.119426   0.000003  -0.000000
    7  C  1  X    0.000000   0.000000   0.000000   0.000000   0.000000
    8  C  1  Y    0.000001   0.000001  -0.000008  -0.029143  -0.014697
    9  C  1  Z    0.000688  -0.018956  -0.011712   0.000001   0.000006
   10  C  1 XX    0.000069  -0.013036   0.008494  -0.000000  -0.000000
   11  C  1 YY   -0.000161   0.002178  -0.007176  -0.000000   0.000000
   12  C  1 ZZ    0.000012   0.006807   0.007504   0.000000  -0.000000
   13  C  1 XY    0.000000   0.000000   0.000000   0.000000   0.000000
   14  C  1 XZ    0.000000   0.000000   0.000000   0.000000   0.000000
   15  C  1 YZ   -0.000000   0.000000  -0.000000  -0.006781  -0.013340
   16  C  2  S   -0.038263  -0.128648  -0.096157  -0.000000  -0.000000
   17  C  2  S   -0.001959   0.252874   0.192902  -0.000000   0.000000
   18  C  2  X    0.000000   0.000000   0.000000   0.000000   0.000000
   19  C  2  Y    0.000000  -0.000000  -0.000001  -0.171769   0.143252
   20  C  2  Z    0.000201   0.011365  -0.113022  -0.000000  -0.000000
   21  C  2  S    0.004575   0.131116   0.119440   0.000003   0.000000
   22  C  2  X    0.000000   0.000000   0.000000   0.000000   0.000000
   23  C  2  Y   -0.000002   0.000002   0.000008  -0.029148   0.014698
   24  C  2  Z   -0.000461   0.018986  -0.011718  -0.000002   0.000006
   25  C  2 XX    0.000109  -0.013037  -0.008495  -0.000000   0.000000
   26  C  2 YY   -0.000258   0.002177   0.007176  -0.000000   0.000000
   27  C  2 ZZ   -0.000070   0.006807  -0.007504  -0.000000   0.000000
   28  C  2 XY    0.000000   0.000000   0.000000   0.000000   0.000000
   29  C  2 XZ    0.000000   0.000000   0.000000   0.000000   0.000000
   30  C  2 YZ   -0.000000  -0.000000  -0.000000   0.006781  -0.013340
   31  C  3  S    0.390826  -0.070887   0.088898   0.098537   0.104757
   32  C  3  S    0.015819   0.135258  -0.171419  -0.192464  -0.208204
   33  C  3  X    0.000000   0.000000   0.000000   0.000000   0.000000
   34  C  3  Y   -0.000066  -0.054826   0.062379  -0.006064  -0.012500
   35  C  3  Z   -0.000005  -0.035149   0.012831   0.027062   0.001979
   36  C  3  S   -0.004318   0.103345  -0.136609  -0.168599  -0.198751
   37  C  3  X    0.000000   0.000000   0.000000   0.000000   0.000000
   38  C  3  Y    0.000175  -0.013684   0.010807  -0.010090  -0.014615
   39  C  3  Z   -0.000129  -0.001397  -0.003276   0.013444  -0.004075
   40  C  3 XX   -0.002758  -0.007618   0.009207   0.009634   0.009604
   41  C  3 YY   -0.002399   0.006350  -0.007625  -0.002675  -0.002746
   42  C  3 ZZ   -0.002512   0.001973  -0.001997  -0.005286  -0.006174
   43  C  3 XY    0.000000   0.000000   0.000000   0.000000   0.000000
   44  C  3 XZ    0.000000   0.000000   0.000000   0.000000   0.000000
   45  C  3 YZ    0.000062   0.004196  -0.002548   0.001041   0.001749
   46  C  4  S    0.389201  -0.070887   0.088898  -0.098537  -0.104757
   47  C  4  S    0.015752   0.135258  -0.171419   0.192465   0.208204
   48  C  4  X    0.000000   0.000000   0.000000   0.000000   0.000000
   49  C  4  Y    0.000066   0.054826  -0.062380  -0.006063  -0.012500
   50  C  4  Z   -0.000005  -0.035149   0.012831  -0.027062  -0.001979
   51  C  4  S   -0.004298   0.103347  -0.136620   0.168596   0.198746
   52  C  4  X    0.000000   0.000000   0.000000   0.000000   0.000000
   53  C  4  Y   -0.000174   0.013685  -0.010810  -0.010091  -0.014619
   54  C  4  Z   -0.000129  -0.001398  -0.003272  -0.013444   0.004073
   55  C  4 XX   -0.002747  -0.007618   0.009207  -0.009634  -0.009604
   56  C  4 YY   -0.002388   0.006350  -0.007625   0.002675   0.002746
   57  C  4 ZZ   -0.002502   0.001973  -0.001997   0.005286   0.006174
   58  C  4 XY    0.000000   0.000000   0.000000   0.000000   0.000000
   59  C  4 XZ    0.000000   0.000000   0.000000   0.000000   0.000000
   60  C  4 YZ   -0.000061  -0.004196   0.002548   0.001041   0.001749
   61  C  5  S    0.582608  -0.070886  -0.088898   0.098538  -0.104756
   62  C  5  S    0.023645   0.135256   0.171420  -0.192467   0.208202
   63  C  5  X    0.000000   0.000000   0.000000   0.000000   0.000000
   64  C  5  Y   -0.000079  -0.054825  -0.062380  -0.006063   0.012498
   65  C  5  Z    0.000045   0.035148   0.012831  -0.027062   0.001979
   66  C  5  S   -0.006863   0.103348   0.136603  -0.168599   0.198747
   67  C  5  X    0.000000   0.000000   0.000000   0.000000   0.000000
   68  C  5  Y    0.000150  -0.013690  -0.010803  -0.010090   0.014615
   69  C  5  Z   -0.000223   0.001390  -0.003275  -0.013443  -0.004075
   70  C  5 XX   -0.004067  -0.007618  -0.009207   0.009634  -0.009604
   71  C  5 YY   -0.003556   0.006350   0.007624  -0.002675   0.002746
   72  C  5 ZZ   -0.003725   0.001972   0.001997  -0.005286   0.006174
   73  C  5 XY    0.000000   0.000000   0.000000   0.000000   0.000000
   74  C  5 XZ    0.000000   0.000000   0.000000   0.000000   0.000000
   75  C  5 YZ   -0.000086  -0.004196  -0.002548  -0.001041   0.001749
   76  C  6  S    0.584847  -0.070886  -0.088898  -0.098538   0.104756
   77  C  6  S    0.023737   0.135256   0.171420   0.192467  -0.208202
   78  C  6  X    0.000000   0.000000   0.000000   0.000000   0.000000
   79  C  6  Y    0.000079   0.054825   0.062380  -0.006063   0.012498
   80  C  6  Z    0.000045   0.035148   0.012831   0.027062  -0.001979
   81  C  6  S   -0.006890   0.103351   0.136614   0.168595  -0.198741
   82  C  6  X    0.000000   0.000000   0.000000   0.000000   0.000000
   83  C  6  Y   -0.000151   0.013691   0.010806  -0.010092   0.014619
   84  C  6  Z   -0.000223   0.001392  -0.003271   0.013443   0.004074
   85  C  6 XX   -0.004082  -0.007618  -0.009207  -0.009634   0.009604
   86  C  6 YY   -0.003570   0.006350   0.007624   0.002675  -0.002746
   87  C  6 ZZ   -0.003739   0.001972   0.001997   0.005286  -0.006174
   88  C  6 XY    0.000000   0.000000   0.000000   0.000000   0.000000
   89  C  6 XZ    0.000000   0.000000   0.000000   0.000000   0.000000
   90  C  6 YZ    0.000086   0.004196   0.002548  -0.001041   0.001749
   91  H  7  S   -0.000111   0.030828  -0.053576  -0.060164  -0.078771
   92  H  7  S    0.000935   0.001624  -0.010240  -0.020336  -0.022072
   93  H  8  S   -0.000143   0.033216  -0.039555  -0.081467  -0.082428
   94  H  8  S    0.000700   0.008107  -0.005739  -0.024723  -0.017967
   95  H  9  S   -0.000180   0.030827   0.053575   0.060165  -0.078770
   96  H  9  S    0.001242   0.001620   0.010242   0.020337  -0.022073
   97  H 10  S   -0.000175   0.033216   0.039555   0.081468  -0.082426
   98  H 10  S    0.001374   0.008111   0.005737   0.024723  -0.017964
   99  H 11  S   -0.000179   0.030827   0.053575  -0.060165   0.078770
  100  H 11  S    0.001237   0.001620   0.010241  -0.020336   0.022071
  101  H 12  S   -0.000174   0.033217   0.039555  -0.081468   0.082427
  102  H 12  S    0.001369   0.008112   0.005737  -0.024723   0.017966
  103  H 13  S   -0.000110   0.030828  -0.053576   0.060164   0.078771
  104  H 13  S    0.000931   0.001624  -0.010241   0.020337   0.022073
  105  H 14  S   -0.000142   0.033216  -0.039554   0.081467   0.082428
  106  H 14  S    0.000695   0.008107  -0.005738   0.024723   0.017965

                     11         12         13         14         15
                   -0.6807    -0.5886    -0.5768    -0.5332    -0.4862
                     A          A          A          A          A   
    1  C  1  S   -0.077498   0.080375   0.021798   0.000000   0.026943
    2  C  1  S    0.159419  -0.170534  -0.046481  -0.000001  -0.055883
    3  C  1  X    0.000000   0.000000   0.000000   0.000000   0.000000
    4  C  1  Y   -0.000000  -0.000000  -0.000001   0.226608   0.000002
    5  C  1  Z   -0.185321  -0.095586  -0.186657  -0.000001   0.018753
    6  C  1  S    0.154099  -0.149735  -0.021719   0.000000  -0.102623
    7  C  1  X    0.000000   0.000000   0.000000   0.000000   0.000000
    8  C  1  Y   -0.000001  -0.000004  -0.000002   0.056898   0.000004
    9  C  1  Z   -0.044457   0.014360  -0.039954  -0.000000  -0.001093
   10  C  1 XX   -0.006592   0.005443   0.001463   0.000000   0.001497
   11  C  1 YY   -0.007345   0.001268   0.004483   0.000000  -0.012152
   12  C  1 ZZ    0.008461   0.007335  -0.001217   0.000000   0.014692
   13  C  1 XY    0.000000   0.000000   0.000000   0.000000   0.000000
   14  C  1 XZ    0.000000   0.000000   0.000000   0.000000   0.000000
   15  C  1 YZ   -0.000000  -0.000000  -0.000000  -0.003980   0.000000
   16  C  2  S   -0.077497  -0.080376   0.021800  -0.000000  -0.026943
   17  C  2  S    0.159413   0.170535  -0.046484   0.000001   0.055882
   18  C  2  X    0.000000   0.000000   0.000000   0.000000   0.000000
   19  C  2  Y   -0.000000  -0.000001  -0.000000   0.226605  -0.000005
   20  C  2  Z    0.185323  -0.095580   0.186659   0.000000   0.018766
   21  C  2  S    0.154108   0.149751  -0.021730   0.000001   0.102637
   22  C  2  X    0.000000   0.000000   0.000000   0.000000   0.000000
   23  C  2  Y   -0.000001   0.000004  -0.000001   0.056944  -0.000005
   24  C  2  Z    0.044458   0.014354   0.039936  -0.000001  -0.001095
   25  C  2 XX   -0.006592  -0.005444   0.001464  -0.000000  -0.001497
   26  C  2 YY   -0.007345  -0.001268   0.004483  -0.000000   0.012152
   27  C  2 ZZ    0.008462  -0.007335  -0.001216   0.000000  -0.014692
   28  C  2 XY    0.000000   0.000000   0.000000   0.000000   0.000000
   29  C  2 XZ    0.000000   0.000000   0.000000   0.000000   0.000000
   30  C  2 YZ    0.000000  -0.000000   0.000000   0.003980   0.000000
   31  C  3  S    0.063941  -0.038897  -0.010425   0.014077   0.012666
   32  C  3  S   -0.126442   0.079322   0.019882  -0.029428  -0.028179
   33  C  3  X    0.000000   0.000000   0.000000   0.000000   0.000000
   34  C  3  Y   -0.055624   0.185973   0.190853  -0.100126  -0.097908
   35  C  3  Z   -0.093506   0.084185  -0.082411  -0.197757   0.209410
   36  C  3  S   -0.132286   0.079165   0.022233  -0.035287  -0.027518
   37  C  3  X    0.000000   0.000000   0.000000   0.000000   0.000000
   38  C  3  Y   -0.009950   0.074620   0.073914  -0.035363  -0.061809
   39  C  3  Z   -0.029454   0.025625  -0.047918  -0.090972   0.080300
   40  C  3 XX    0.006134  -0.003329  -0.001148   0.000959   0.000273
   41  C  3 YY   -0.001194  -0.002982   0.001669   0.002612  -0.011109
   42  C  3 ZZ   -0.004759   0.008829   0.000435  -0.009044   0.011525
   43  C  3 XY    0.000000   0.000000   0.000000   0.000000   0.000000
   44  C  3 XZ    0.000000   0.000000   0.000000   0.000000   0.000000
   45  C  3 YZ    0.008256  -0.010758  -0.007540   0.006611   0.003199
   46  C  4  S    0.063941  -0.038897  -0.010425  -0.014077   0.012666
   47  C  4  S   -0.126441   0.079322   0.019883   0.029429  -0.028179
   48  C  4  X    0.000000   0.000000   0.000000   0.000000   0.000000
   49  C  4  Y    0.055624  -0.185972  -0.190852  -0.100126   0.097909
   50  C  4  Z   -0.093506   0.084186  -0.082410   0.197759   0.209418
   51  C  4  S   -0.132287   0.079159   0.022229   0.035287  -0.027513
   52  C  4  X    0.000000   0.000000   0.000000   0.000000   0.000000
   53  C  4  Y    0.009949  -0.074621  -0.073914  -0.035364   0.061811
   54  C  4  Z   -0.029454   0.025627  -0.047915   0.090972   0.080302
   55  C  4 XX    0.006134  -0.003328  -0.001148  -0.000959   0.000273
   56  C  4 YY   -0.001194  -0.002982   0.001669  -0.002613  -0.011109
   57  C  4 ZZ   -0.004759   0.008829   0.000435   0.009044   0.011525
   58  C  4 XY    0.000000   0.000000   0.000000   0.000000   0.000000
   59  C  4 XZ    0.000000   0.000000   0.000000   0.000000   0.000000
   60  C  4 YZ   -0.008256   0.010759   0.007540   0.006611  -0.003199
   61  C  5  S    0.063942   0.038897  -0.010425   0.014077  -0.012666
   62  C  5  S   -0.126443  -0.079322   0.019882  -0.029428   0.028178
   63  C  5  X    0.000000   0.000000   0.000000   0.000000   0.000000
   64  C  5  Y   -0.055624  -0.185971   0.190852  -0.100129   0.097913
   65  C  5  Z    0.093504   0.084182   0.082411   0.197756   0.209408
   66  C  5  S   -0.132290  -0.079173   0.022226  -0.035318   0.027508
   67  C  5  X    0.000000   0.000000   0.000000   0.000000   0.000000
   68  C  5  Y   -0.009948  -0.074614   0.073919  -0.035354   0.061814
   69  C  5  Z    0.029453   0.025624   0.047920   0.090959   0.080299
   70  C  5 XX    0.006134   0.003329  -0.001148   0.000959  -0.000273
   71  C  5 YY   -0.001194   0.002982   0.001668   0.002613   0.011109
   72  C  5 ZZ   -0.004759  -0.008829   0.000436  -0.009044  -0.011524
   73  C  5 XY    0.000000   0.000000   0.000000   0.000000   0.000000
   74  C  5 XZ    0.000000   0.000000   0.000000   0.000000   0.000000
   75  C  5 YZ   -0.008256  -0.010758   0.007541  -0.006611   0.003200
   76  C  6  S    0.063942   0.038897  -0.010425  -0.014077  -0.012666
   77  C  6  S   -0.126442  -0.079322   0.019883   0.029428   0.028180
   78  C  6  X    0.000000   0.000000   0.000000   0.000000   0.000000
   79  C  6  Y    0.055624   0.185972  -0.190852  -0.100128  -0.097906
   80  C  6  Z    0.093505   0.084184   0.082409  -0.197756   0.209413
   81  C  6  S   -0.132292  -0.079168   0.022226   0.035317   0.027504
   82  C  6  X    0.000000   0.000000   0.000000   0.000000   0.000000
   83  C  6  Y    0.009948   0.074616  -0.073920  -0.035354  -0.061814
   84  C  6  Z    0.029453   0.025627   0.047919  -0.090958   0.080301
   85  C  6 XX    0.006134   0.003329  -0.001148  -0.000959  -0.000273
   86  C  6 YY   -0.001194   0.002982   0.001668  -0.002612   0.011109
   87  C  6 ZZ   -0.004759  -0.008829   0.000436   0.009044  -0.011524
   88  C  6 XY    0.000000   0.000000   0.000000   0.000000   0.000000
   89  C  6 XZ    0.000000   0.000000   0.000000   0.000000   0.000000
   90  C  6 YZ    0.008256   0.010758  -0.007541  -0.006611  -0.003199
   91  H  7  S   -0.097357   0.085173  -0.034805  -0.125507   0.123356
   92  H  7  S   -0.046486   0.056514  -0.014813  -0.076198   0.107338
   93  H  8  S   -0.062330   0.102246   0.129702  -0.018166  -0.116691
   94  H  8  S   -0.033306   0.053314   0.082837  -0.015333  -0.071325
   95  H  9  S   -0.097357  -0.085173  -0.034802   0.125508  -0.123357
   96  H  9  S   -0.046486  -0.056512  -0.014809   0.076203  -0.107336
   97  H 10  S   -0.062330  -0.102245   0.129701   0.018166   0.116690
   98  H 10  S   -0.033306  -0.053316   0.082833   0.015332   0.071325
   99  H 11  S   -0.097356  -0.085172  -0.034803  -0.125508  -0.123354
  100  H 11  S   -0.046486  -0.056512  -0.014810  -0.076202  -0.107334
  101  H 12  S   -0.062330  -0.102245   0.129702  -0.018166   0.116693
  102  H 12  S   -0.033307  -0.053314   0.082834  -0.015333   0.071327
  103  H 13  S   -0.097357   0.085173  -0.034804   0.125508   0.123361
  104  H 13  S   -0.046486   0.056515  -0.014813   0.076199   0.107341
  105  H 14  S   -0.062329   0.102245   0.129702   0.018166  -0.116694
  106  H 14  S   -0.033306   0.053315   0.082837   0.015332  -0.071328

                     16         17         18         19         20
                   -0.4743    -0.4694    -0.4287    -0.4158    -0.4091
                     A          A          A          A          A   
    1  C  1  S    0.000000  -0.000001  -0.000000  -0.013653   0.000000
    2  C  1  S   -0.000001   0.000000   0.000000   0.026152   0.000000
    3  C  1  X    0.000000   0.000000   0.000000   0.000000   0.297081
    4  C  1  Y   -0.240860  -0.161010  -0.174430   0.000001   0.000000
    5  C  1  Z    0.000001   0.000001  -0.000004  -0.333207   0.000000
    6  C  1  S    0.000000   0.000008   0.000001   0.099741   0.000000
    7  C  1  X    0.000000   0.000000   0.000000   0.000000   0.172193
    8  C  1  Y    0.049234  -0.056838   0.029401  -0.000001   0.000000
    9  C  1  Z   -0.000005   0.000003   0.000011  -0.110525   0.000000
   10  C  1 XX   -0.000000  -0.000000  -0.000000  -0.001155   0.000000
   11  C  1 YY   -0.000000   0.000000  -0.000000  -0.016734   0.000000
   12  C  1 ZZ    0.000000  -0.000000   0.000000   0.019412   0.000000
   13  C  1 XY    0.000000   0.000000   0.000000   0.000000   0.000000
   14  C  1 XZ    0.000000   0.000000   0.000000   0.000000  -0.001351
   15  C  1 YZ   -0.010743  -0.010483  -0.017122   0.000000   0.000000
   16  C  2  S   -0.000001   0.000000  -0.000000  -0.013651   0.000000
   17  C  2  S    0.000001  -0.000001   0.000001   0.026144   0.000000
   18  C  2  X    0.000000   0.000000   0.000000   0.000000   0.297080
   19  C  2  Y    0.240895  -0.160960   0.174426  -0.000003   0.000000
   20  C  2  Z   -0.000000  -0.000001   0.000004   0.333208   0.000000
   21  C  2  S    0.000000   0.000004   0.000001   0.099751   0.000000
   22  C  2  X    0.000000   0.000000   0.000000   0.000000   0.172192
   23  C  2  Y   -0.049231  -0.056898  -0.029419  -0.000002   0.000000
   24  C  2  Z   -0.000005  -0.000004   0.000014   0.110472   0.000000
   25  C  2 XX    0.000000  -0.000000   0.000000  -0.001155   0.000000
   26  C  2 YY    0.000000  -0.000000  -0.000000  -0.016734   0.000000
   27  C  2 ZZ   -0.000000   0.000000   0.000000   0.019412   0.000000
   28  C  2 XY    0.000000   0.000000   0.000000   0.000000  -0.000000
   29  C  2 XZ    0.000000   0.000000   0.000000   0.000000   0.001351
   30  C  2 YZ   -0.010744   0.010482  -0.017121   0.000000   0.000000
   31  C  3  S    0.010358   0.017513   0.012521   0.013700   0.000000
   32  C  3  S   -0.021154  -0.038402  -0.026221  -0.029702   0.000000
   33  C  3  X    0.000000   0.000000   0.000000   0.000000   0.166989
   34  C  3  Y    0.090043   0.204091   0.236971   0.058803   0.000000
   35  C  3  Z    0.229873  -0.096827  -0.079471   0.176638   0.000000
   36  C  3  S   -0.096896  -0.045274  -0.087447  -0.050781   0.000000
   37  C  3  X    0.000000   0.000000   0.000000   0.000000   0.112875
   38  C  3  Y    0.052115   0.070754   0.117373   0.035823   0.000000
   39  C  3  Z    0.122156  -0.047780  -0.013334   0.073865   0.000000
   40  C  3 XX    0.000414   0.000787   0.000591   0.000502   0.000000
   41  C  3 YY   -0.005331   0.011572   0.013488  -0.013646   0.000000
   42  C  3 ZZ    0.010617  -0.008172  -0.008035   0.017388   0.000000
   43  C  3 XY    0.000000   0.000000   0.000000   0.000000  -0.010251
   44  C  3 XZ    0.000000   0.000000   0.000000   0.000000  -0.006768
   45  C  3 YZ   -0.005708  -0.011393  -0.012514   0.002856   0.000000
   46  C  4  S   -0.010358  -0.017513  -0.012520   0.013701   0.000000
   47  C  4  S    0.021153   0.038403   0.026221  -0.029703   0.000000
   48  C  4  X    0.000000   0.000000   0.000000   0.000000   0.166989
   49  C  4  Y    0.090046   0.204091   0.236970  -0.058807   0.000000
   50  C  4  Z   -0.229867   0.096822   0.079475   0.176636   0.000000
   51  C  4  S    0.096897   0.045268   0.087434  -0.050783   0.000000
   52  C  4  X    0.000000   0.000000   0.000000   0.000000   0.112875
   53  C  4  Y    0.052121   0.070750   0.117364  -0.035826   0.000000
   54  C  4  Z   -0.122151   0.047778   0.013333   0.073865   0.000000
   55  C  4 XX   -0.000414  -0.000787  -0.000591   0.000502   0.000000
   56  C  4 YY    0.005331  -0.011572  -0.013488  -0.013646   0.000000
   57  C  4 ZZ   -0.010616   0.008172   0.008036   0.017387   0.000000
   58  C  4 XY    0.000000   0.000000   0.000000   0.000000   0.010251
   59  C  4 XZ    0.000000   0.000000   0.000000   0.000000  -0.006768
   60  C  4 YZ   -0.005708  -0.011393  -0.012514  -0.002856   0.000000
   61  C  5  S   -0.010362   0.017510  -0.012520   0.013701   0.000000
   62  C  5  S    0.021161  -0.038399   0.026218  -0.029701   0.000000
   63  C  5  X    0.000000   0.000000   0.000000   0.000000   0.166988
   64  C  5  Y   -0.090090   0.204075  -0.236963   0.058809   0.000000
   65  C  5  Z    0.229851   0.096877  -0.079475  -0.176642   0.000000
   66  C  5  S    0.096912  -0.045221   0.087457  -0.050811   0.000000
   67  C  5  X    0.000000   0.000000   0.000000   0.000000   0.112875
   68  C  5  Y   -0.052134   0.070735  -0.117372   0.035847   0.000000
   69  C  5  Z    0.122148   0.047821  -0.013329  -0.073863   0.000000
   70  C  5 XX   -0.000415   0.000787  -0.000592   0.000503   0.000000
   71  C  5 YY    0.005329   0.011573  -0.013487  -0.013647   0.000000
   72  C  5 ZZ   -0.010615  -0.008174   0.008035   0.017388   0.000000
   73  C  5 XY    0.000000   0.000000   0.000000   0.000000  -0.010251
   74  C  5 XZ    0.000000   0.000000   0.000000   0.000000   0.006768
   75  C  5 YZ   -0.005710   0.011392  -0.012514  -0.002856   0.000000
   76  C  6  S    0.010362  -0.017510   0.012520   0.013701   0.000000
   77  C  6  S   -0.021161   0.038399  -0.026219  -0.029700   0.000000
   78  C  6  X    0.000000   0.000000   0.000000   0.000000   0.166989
   79  C  6  Y   -0.090092   0.204078  -0.236965  -0.058802   0.000000
   80  C  6  Z   -0.229844  -0.096880   0.079470  -0.176645   0.000000
   81  C  6  S   -0.096913   0.045213  -0.087447  -0.050811   0.000000
   82  C  6  X    0.000000   0.000000   0.000000   0.000000   0.112875
   83  C  6  Y   -0.052138   0.070732  -0.117364  -0.035844   0.000000
   84  C  6  Z   -0.122144  -0.047821   0.013323  -0.073865   0.000000
   85  C  6 XX    0.000415  -0.000787   0.000592   0.000503   0.000000
   86  C  6 YY   -0.005328  -0.011574   0.013487  -0.013647   0.000000
   87  C  6 ZZ    0.010615   0.008174  -0.008035   0.017389   0.000000
   88  C  6 XY    0.000000   0.000000   0.000000   0.000000   0.010251
   89  C  6 XZ    0.000000   0.000000   0.000000   0.000000   0.006768
   90  C  6 YZ   -0.005710   0.011392  -0.012514   0.002856   0.000000
   91  H  7  S    0.130622  -0.081857  -0.069651   0.120802   0.000000
   92  H  7  S    0.097212  -0.057446  -0.061430   0.129194   0.000000
   93  H  8  S   -0.016162   0.141709   0.149179  -0.049285   0.000000
   94  H  8  S    0.001246   0.133233   0.133952  -0.057028   0.000000
   95  H  9  S    0.130600   0.081886  -0.069649   0.120808   0.000000
   96  H  9  S    0.097196   0.057466  -0.061433   0.129204   0.000000
   97  H 10  S   -0.016128  -0.141717   0.149175  -0.049289   0.000000
   98  H 10  S    0.001275  -0.133235   0.133954  -0.057039   0.000000
   99  H 11  S   -0.130604  -0.081885   0.069651   0.120806   0.000000
  100  H 11  S   -0.097199  -0.057462   0.061433   0.129203   0.000000
  101  H 12  S    0.016131   0.141714  -0.149176  -0.049285   0.000000
  102  H 12  S   -0.001275   0.133232  -0.133951  -0.057035   0.000000
  103  H 13  S   -0.130618   0.081855   0.069655   0.120800   0.000000
  104  H 13  S   -0.097210   0.057445   0.061437   0.129192   0.000000
  105  H 14  S    0.016159  -0.141707  -0.149180  -0.049282   0.000000
  106  H 14  S   -0.001245  -0.133233  -0.133956  -0.057025   0.000000

                     21         22         23         24         25
                   -0.3085    -0.1784    -0.0787     0.0581     0.1445
                     A          A          A          A          A   
    1  C  1  S    0.000000   0.000000   0.000000   0.000000   0.008403
    2  C  1  S    0.000000   0.000000   0.000000   0.000000  -0.025001
    3  C  1  X   -0.255660  -0.000000   0.000000   0.287543   0.000000
    4  C  1  Y    0.000000   0.000000   0.000000   0.000000  -0.000000
    5  C  1  Z    0.000000   0.000000   0.000000   0.000000  -0.015767
    6  C  1  S    0.000000   0.000000   0.000000   0.000000   0.147112
    7  C  1  X   -0.170993  -0.000000  -0.000000   0.403847   0.000000
    8  C  1  Y    0.000000   0.000000   0.000000   0.000000  -0.000003
    9  C  1  Z    0.000000   0.000000   0.000000   0.000000   0.051246
   10  C  1 XX    0.000000   0.000000   0.000000   0.000000   0.000414
   11  C  1 YY    0.000000   0.000000   0.000000   0.000000   0.007169
   12  C  1 ZZ    0.000000   0.000000   0.000000   0.000000  -0.007029
   13  C  1 XY   -0.000000   0.027929   0.022787  -0.000000   0.000000
   14  C  1 XZ   -0.019533  -0.000000  -0.000000  -0.025885   0.000000
   15  C  1 YZ    0.000000   0.000000   0.000000   0.000000  -0.000000
   16  C  2  S    0.000000   0.000000   0.000000   0.000000   0.008401
   17  C  2  S    0.000000   0.000000   0.000000   0.000000  -0.025002
   18  C  2  X    0.255662  -0.000000  -0.000000   0.287537   0.000000
   19  C  2  Y    0.000000   0.000000   0.000000   0.000000  -0.000000
   20  C  2  Z    0.000000   0.000000   0.000000   0.000000   0.015770
   21  C  2  S    0.000000   0.000000   0.000000   0.000000   0.147176
   22  C  2  X    0.170996  -0.000000   0.000000   0.403843   0.000000
   23  C  2  Y    0.000000   0.000000   0.000000   0.000000   0.000009
   24  C  2  Z    0.000000   0.000000   0.000000   0.000000  -0.051212
   25  C  2 XX    0.000000   0.000000   0.000000   0.000000   0.000414
   26  C  2 YY    0.000000   0.000000   0.000000   0.000000   0.007170
   27  C  2 ZZ    0.000000   0.000000   0.000000   0.000000  -0.007029
   28  C  2 XY   -0.000000   0.027929  -0.022787   0.000000   0.000000
   29  C  2 XZ   -0.019532   0.000000   0.000000   0.025885   0.000000
   30  C  2 YZ    0.000000   0.000000   0.000000   0.000000  -0.000000
   31  C  3  S    0.000000   0.000000   0.000000   0.000000  -0.066196
   32  C  3  S    0.000000   0.000000   0.000000   0.000000   0.098614
   33  C  3  X   -0.219495   0.274803   0.292965  -0.207342   0.000000
   34  C  3  Y    0.000000   0.000000   0.000000   0.000000   0.106959
   35  C  3  Z    0.000000   0.000000   0.000000   0.000000   0.018216
   36  C  3  S    0.000000   0.000000   0.000000   0.000000   0.849351
   37  C  3  X   -0.168418   0.301316   0.302071  -0.367620   0.000000
   38  C  3  Y    0.000000   0.000000   0.000000   0.000000   0.384528
   39  C  3  Z    0.000000   0.000000   0.000000   0.000000   0.069341
   40  C  3 XX    0.000000   0.000000   0.000000   0.000000  -0.004203
   41  C  3 YY    0.000000   0.000000   0.000000   0.000000  -0.004509
   42  C  3 ZZ    0.000000   0.000000   0.000000   0.000000  -0.003146
   43  C  3 XY    0.011504   0.000535   0.000627  -0.011802   0.000000
   44  C  3 XZ    0.003587  -0.004420  -0.000146  -0.011240   0.000000
   45  C  3 YZ    0.000000   0.000000   0.000000   0.000000   0.006199
   46  C  4  S    0.000000   0.000000   0.000000   0.000000  -0.066197
   47  C  4  S    0.000000   0.000000   0.000000   0.000000   0.098614
   48  C  4  X   -0.219496  -0.274803  -0.292965  -0.207342   0.000000
   49  C  4  Y    0.000000   0.000000   0.000000   0.000000  -0.106960
   50  C  4  Z    0.000000   0.000000   0.000000   0.000000   0.018215
   51  C  4  S    0.000000   0.000000   0.000000   0.000000   0.849351
   52  C  4  X   -0.168418  -0.301316  -0.302070  -0.367620   0.000000
   53  C  4  Y    0.000000   0.000000   0.000000   0.000000  -0.384536
   54  C  4  Z    0.000000   0.000000   0.000000   0.000000   0.069339
   55  C  4 XX    0.000000   0.000000   0.000000   0.000000  -0.004202
   56  C  4 YY    0.000000   0.000000   0.000000   0.000000  -0.004509
   57  C  4 ZZ    0.000000   0.000000   0.000000   0.000000  -0.003146
   58  C  4 XY   -0.011504   0.000535   0.000627   0.011802   0.000000
   59  C  4 XZ    0.003588   0.004420   0.000146  -0.011240   0.000000
   60  C  4 YZ    0.000000   0.000000   0.000000   0.000000  -0.006199
   61  C  5  S    0.000000   0.000000   0.000000   0.000000  -0.066195
   62  C  5  S    0.000000   0.000000   0.000000   0.000000   0.098614
   63  C  5  X    0.219495   0.274805  -0.292964  -0.207342   0.000000
   64  C  5  Y    0.000000   0.000000   0.000000   0.000000   0.106957
   65  C  5  Z    0.000000   0.000000   0.000000   0.000000  -0.018212
   66  C  5  S    0.000000   0.000000   0.000000   0.000000   0.849325
   67  C  5  X    0.168416   0.301318  -0.302068  -0.367619   0.000000
   68  C  5  Y    0.000000   0.000000   0.000000   0.000000   0.384534
   69  C  5  Z    0.000000   0.000000   0.000000   0.000000  -0.069348
   70  C  5 XX    0.000000   0.000000   0.000000   0.000000  -0.004202
   71  C  5 YY    0.000000   0.000000   0.000000   0.000000  -0.004509
   72  C  5 ZZ    0.000000   0.000000   0.000000   0.000000  -0.003146
   73  C  5 XY   -0.011504   0.000534  -0.000627  -0.011802   0.000000
   74  C  5 XZ    0.003587   0.004420  -0.000146   0.011240   0.000000
   75  C  5 YZ    0.000000   0.000000   0.000000   0.000000  -0.006198
   76  C  6  S    0.000000   0.000000   0.000000   0.000000  -0.066196
   77  C  6  S    0.000000   0.000000   0.000000   0.000000   0.098614
   78  C  6  X    0.219496  -0.274804   0.292963  -0.207343   0.000000
   79  C  6  Y    0.000000   0.000000   0.000000   0.000000  -0.106959
   80  C  6  Z    0.000000   0.000000   0.000000   0.000000  -0.018211
   81  C  6  S    0.000000   0.000000   0.000000   0.000000   0.849344
   82  C  6  X    0.168417  -0.301317   0.302067  -0.367621   0.000000
   83  C  6  Y    0.000000   0.000000   0.000000   0.000000  -0.384538
   84  C  6  Z    0.000000   0.000000   0.000000   0.000000  -0.069340
   85  C  6 XX    0.000000   0.000000   0.000000   0.000000  -0.004202
   86  C  6 YY    0.000000   0.000000   0.000000   0.000000  -0.004508
   87  C  6 ZZ    0.000000   0.000000   0.000000   0.000000  -0.003146
   88  C  6 XY    0.011504   0.000534  -0.000627   0.011802   0.000000
   89  C  6 XZ    0.003587  -0.004420   0.000146   0.011240   0.000000
   90  C  6 YZ    0.000000   0.000000   0.000000   0.000000   0.006199
   91  H  7  S    0.000000   0.000000   0.000000   0.000000  -0.014814
   92  H  7  S    0.000000   0.000000   0.000000   0.000000  -0.482227
   93  H  8  S    0.000000   0.000000   0.000000   0.000000  -0.039548
   94  H  8  S    0.000000   0.000000   0.000000   0.000000  -0.752907
   95  H  9  S    0.000000   0.000000   0.000000   0.000000  -0.014814
   96  H  9  S    0.000000   0.000000   0.000000   0.000000  -0.482219
   97  H 10  S    0.000000   0.000000   0.000000   0.000000  -0.039549
   98  H 10  S    0.000000   0.000000   0.000000   0.000000  -0.752913
   99  H 11  S    0.000000   0.000000   0.000000   0.000000  -0.014814
  100  H 11  S    0.000000   0.000000   0.000000   0.000000  -0.482222
  101  H 12  S    0.000000   0.000000   0.000000   0.000000  -0.039548
  102  H 12  S    0.000000   0.000000   0.000000   0.000000  -0.752900
  103  H 13  S    0.000000   0.000000   0.000000   0.000000  -0.014815
  104  H 13  S    0.000000   0.000000   0.000000   0.000000  -0.482225
  105  H 14  S    0.000000   0.000000   0.000000   0.000000  -0.039549
  106  H 14  S    0.000000   0.000000   0.000000   0.000000  -0.752917

                     26         27         28         29         30
                    0.1769     0.1843     0.1911     0.1985     0.2266
                     A          A          A          A          A   
    1  C  1  S   -0.035649  -0.000001   0.033942   0.000000  -0.000000
    2  C  1  S    0.089619   0.000003  -0.069765   0.000000  -0.000002
    3  C  1  X    0.000000   0.000000   0.000000  -0.409034   0.000000
    4  C  1  Y   -0.000000   0.059691   0.000001   0.000000   0.071924
    5  C  1  Z   -0.121250  -0.000002   0.015652   0.000000   0.000000
    6  C  1  S    0.020607  -0.000008  -0.406451   0.000000   0.000032
    7  C  1  X    0.000000   0.000000   0.000000  -0.767775   0.000000
    8  C  1  Y   -0.000048   0.210227  -0.000012   0.000000   0.168686
    9  C  1  Z    0.466386  -0.000014   0.116234   0.000000   0.000017
   10  C  1 XX    0.003639   0.000000  -0.002069   0.000000  -0.000000
   11  C  1 YY    0.016617  -0.000001   0.026088   0.000000   0.000000
   12  C  1 ZZ   -0.028374   0.000000  -0.016822   0.000000   0.000000
   13  C  1 XY    0.000000   0.000000   0.000000   0.000000   0.000000
   14  C  1 XZ    0.000000   0.000000   0.000000  -0.012841   0.000000
   15  C  1 YZ   -0.000000   0.000165  -0.000000   0.000000  -0.037410
   16  C  2  S    0.035658  -0.000000   0.033939   0.000000  -0.000001
   17  C  2  S   -0.089627   0.000001  -0.069738   0.000000  -0.000001
   18  C  2  X    0.000000   0.000000   0.000000   0.409038   0.000000
   19  C  2  Y   -0.000001   0.059690   0.000001   0.000000   0.071922
   20  C  2  Z   -0.121253  -0.000000  -0.015626   0.000000   0.000001
   21  C  2  S   -0.020824   0.000000  -0.406621   0.000000   0.000026
   22  C  2  X    0.000000   0.000000   0.000000   0.767781   0.000000
   23  C  2  Y    0.000042   0.210503   0.000014   0.000000   0.168659
   24  C  2  Z    0.466424   0.000005  -0.116165   0.000000  -0.000010
   25  C  2 XX   -0.003637   0.000000  -0.002065   0.000000  -0.000000
   26  C  2 YY   -0.016612  -0.000001   0.026090   0.000000   0.000000
   27  C  2 ZZ    0.028371   0.000001  -0.016826   0.000000  -0.000000
   28  C  2 XY    0.000000   0.000000   0.000000   0.000000   0.000000
   29  C  2 XZ    0.000000   0.000000   0.000000  -0.012841   0.000000
   30  C  2 YZ   -0.000000  -0.000167   0.000000   0.000000   0.037410
   31  C  3  S    0.038974   0.058532  -0.005214   0.000000   0.046514
   32  C  3  S   -0.041489  -0.076078   0.010175   0.000000  -0.088769
   33  C  3  X    0.000000   0.000000   0.000000   0.150837   0.000000
   34  C  3  Y    0.012411  -0.157722   0.031832   0.000000   0.122828
   35  C  3  Z   -0.167087   0.026742  -0.192026   0.000000  -0.114674
   36  C  3  S   -0.795136  -0.989716  -0.053946   0.000000  -0.575311
   37  C  3  X    0.000000   0.000000   0.000000   0.433034   0.000000
   38  C  3  Y    0.201272  -0.411663   0.121895   0.000000   0.424947
   39  C  3  Z   -0.629165   0.152134  -0.712989   0.000000  -0.525327
   40  C  3 XX    0.005279   0.003421   0.000768   0.000000  -0.001970
   41  C  3 YY   -0.006730  -0.006049  -0.010289   0.000000  -0.002380
   42  C  3 ZZ    0.007417   0.009678   0.007082   0.000000   0.012560
   43  C  3 XY    0.000000   0.000000   0.000000   0.024562   0.000000
   44  C  3 XZ    0.000000   0.000000   0.000000   0.015007   0.000000
   45  C  3 YZ    0.005398   0.001632  -0.003844   0.000000   0.006384
   46  C  4  S    0.038976  -0.058531  -0.005216   0.000000  -0.046514
   47  C  4  S   -0.041487   0.076075   0.010180   0.000000   0.088772
   48  C  4  X    0.000000   0.000000   0.000000   0.150837   0.000000
   49  C  4  Y   -0.012408  -0.157720  -0.031839   0.000000   0.122828
   50  C  4  Z   -0.167086  -0.026737  -0.192028   0.000000   0.114675
   51  C  4  S   -0.795222   0.989719  -0.053934   0.000000   0.575277
   52  C  4  X    0.000000   0.000000   0.000000   0.433034   0.000000
   53  C  4  Y   -0.201286  -0.411639  -0.121925   0.000000   0.424923
   54  C  4  Z   -0.629132  -0.152112  -0.712986   0.000000   0.525328
   55  C  4 XX    0.005280  -0.003421   0.000768   0.000000   0.001971
   56  C  4 YY   -0.006730   0.006049  -0.010289   0.000000   0.002380
   57  C  4 ZZ    0.007417  -0.009679   0.007082   0.000000  -0.012560
   58  C  4 XY    0.000000   0.000000   0.000000  -0.024562   0.000000
   59  C  4 XZ    0.000000   0.000000   0.000000   0.015007   0.000000
   60  C  4 YZ   -0.005398   0.001631   0.003844   0.000000   0.006385
   61  C  5  S   -0.038978   0.058535  -0.005209   0.000000   0.046513
   62  C  5  S    0.041487  -0.076069   0.010160   0.000000  -0.088770
   63  C  5  X    0.000000   0.000000   0.000000  -0.150838   0.000000
   64  C  5  Y   -0.012398  -0.157722   0.031831   0.000000   0.122827
   65  C  5  Z   -0.167051  -0.026744   0.192064   0.000000   0.114679
   66  C  5  S    0.795232  -0.989918  -0.053996   0.000000  -0.575269
   67  C  5  X    0.000000   0.000000   0.000000  -0.433039   0.000000
   68  C  5  Y   -0.201280  -0.411576   0.121840   0.000000   0.424946
   69  C  5  Z   -0.629021  -0.152219   0.713127   0.000000   0.525354
   70  C  5 XX   -0.005281   0.003423   0.000767   0.000000  -0.001970
   71  C  5 YY    0.006727  -0.006049  -0.010290   0.000000  -0.002381
   72  C  5 ZZ   -0.007416   0.009678   0.007083   0.000000   0.012560
   73  C  5 XY    0.000000   0.000000   0.000000  -0.024562   0.000000
   74  C  5 XZ    0.000000   0.000000   0.000000   0.015006   0.000000
   75  C  5 YZ    0.005399  -0.001630   0.003842   0.000000  -0.006385
   76  C  6  S   -0.038978  -0.058535  -0.005212   0.000000  -0.046513
   77  C  6  S    0.041483   0.076069   0.010164   0.000000   0.088772
   78  C  6  X    0.000000   0.000000   0.000000  -0.150838   0.000000
   79  C  6  Y    0.012401  -0.157719  -0.031840   0.000000   0.122825
   80  C  6  Z   -0.167051   0.026733   0.192065   0.000000  -0.114679
   81  C  6  S    0.795282   0.989927  -0.053939   0.000000   0.575253
   82  C  6  X    0.000000   0.000000   0.000000  -0.433040   0.000000
   83  C  6  Y    0.201306  -0.411563  -0.121858   0.000000   0.424924
   84  C  6  Z   -0.628998   0.152175   0.713137   0.000000  -0.525348
   85  C  6 XX   -0.005281  -0.003423   0.000767   0.000000   0.001971
   86  C  6 YY    0.006727   0.006049  -0.010289   0.000000   0.002381
   87  C  6 ZZ   -0.007416  -0.009678   0.007082   0.000000  -0.012560
   88  C  6 XY    0.000000   0.000000   0.000000   0.024562   0.000000
   89  C  6 XZ    0.000000   0.000000   0.000000   0.015007   0.000000
   90  C  6 YZ   -0.005398  -0.001630  -0.003842   0.000000  -0.006385
   91  H  7  S    0.031038   0.045777   0.020569   0.000000   0.050108
   92  H  7  S    1.086943   0.340625   0.900829   0.000000   1.001716
   93  H  8  S   -0.005177   0.006894  -0.021490   0.000000  -0.021106
   94  H  8  S   -0.153018   0.917613  -0.557931   0.000000  -0.487073
   95  H  9  S   -0.031033  -0.045777   0.020572   0.000000  -0.050109
   96  H  9  S   -1.086789  -0.340667   0.901023   0.000000  -1.001718
   97  H 10  S    0.005172  -0.006892  -0.021490   0.000000   0.021107
   98  H 10  S    0.152894  -0.917585  -0.557987   0.000000   0.487094
   99  H 11  S   -0.031033   0.045777   0.020574   0.000000   0.050109
  100  H 11  S   -1.086797   0.340610   0.901040   0.000000   1.001725
  101  H 12  S    0.005172   0.006894  -0.021490   0.000000  -0.021106
  102  H 12  S    0.152889   0.917620  -0.557942   0.000000  -0.487110
  103  H 13  S    0.031038  -0.045777   0.020567   0.000000  -0.050109
  104  H 13  S    1.086943  -0.340647   0.900817   0.000000  -1.001710
  105  H 14  S   -0.005176  -0.006891  -0.021490   0.000000   0.021106
  106  H 14  S   -0.152990  -0.917580  -0.557968   0.000000   0.487070

                     31         32         33         34         35
                    0.2541     0.2571     0.3260     0.3345     0.3504
                     A          A          A          A          A   
    1  C  1  S    0.015298  -0.000001   0.000005  -0.087029  -0.133242
    2  C  1  S   -0.029915   0.000001  -0.000004   0.055655   0.130838
    3  C  1  X    0.000000   0.000000   0.000000   0.000000   0.000000
    4  C  1  Y    0.000007   0.112649   0.058851  -0.000002   0.000001
    5  C  1  Z    0.200612  -0.000013   0.000003   0.168238  -0.075454
    6  C  1  S   -0.202021   0.000006  -0.000140   3.269485   3.479518
    7  C  1  X    0.000000   0.000000   0.000000   0.000000   0.000000
    8  C  1  Y    0.000037   0.728900   1.473055  -0.000049  -0.000024
    9  C  1  Z    0.413459  -0.000013  -0.000097   1.353364   0.155561
   10  C  1 XX   -0.006422   0.000000   0.000000  -0.009040  -0.001697
   11  C  1 YY   -0.019862   0.000001  -0.000001   0.008510   0.013644
   12  C  1 ZZ    0.028625  -0.000002   0.000001  -0.000952  -0.014227
   13  C  1 XY    0.000000   0.000000   0.000000   0.000000   0.000000
   14  C  1 XZ    0.000000   0.000000   0.000000   0.000000   0.000000
   15  C  1 YZ    0.000000   0.000952   0.019115  -0.000000   0.000001
   16  C  2  S   -0.015298   0.000001  -0.000005  -0.087067   0.133215
   17  C  2  S    0.029915  -0.000002   0.000005   0.055664  -0.130811
   18  C  2  X    0.000000   0.000000   0.000000   0.000000   0.000000
[...]
   92  H  7  S    0.098773
   93  H  8  S   -0.043065
   94  H  8  S    0.242274
   95  H  9  S    0.041654
   96  H  9  S   -0.098775
   97  H 10  S    0.043065
   98  H 10  S   -0.242270
   99  H 11  S    0.041654
  100  H 11  S   -0.098774
  101  H 12  S    0.043065
  102  H 12  S   -0.242272
  103  H 13  S   -0.041653
  104  H 13  S    0.098773
  105  H 14  S   -0.043065
  106  H 14  S    0.242272
 ...... END OF RHF CALCULATION ......

            TOTAL ENERGY =     -233.1105987488

 CPU     0: STEP CPU TIME=     0.62 TOTAL CPU TIME=          0.8 (      0.0 MIN)
 TOTAL WALL CLOCK TIME=          1.4 SECONDS, CPU UTILIZATION IS    55.94%

     ---------------------------------------------------------------------
     PROPERTIES FOR THE BHHLYP   DFT FUNCTIONAL (RHF  TYPE) DENSITY MATRIX
     ---------------------------------------------------------------------

          -----------------
          ENERGY COMPONENTS
          -----------------

         WAVEFUNCTION NORMALIZATION =       1.0000000000

                ONE ELECTRON ENERGY =    -725.0926818803
                TWO ELECTRON ENERGY =     283.4038631444
           NUCLEAR REPULSION ENERGY =     208.5782199871
                                      ------------------
                       TOTAL ENERGY =    -233.1105987488

 ELECTRON-ELECTRON POTENTIAL ENERGY =     283.4038631444
  NUCLEUS-ELECTRON POTENTIAL ENERGY =    -956.4295440211
   NUCLEUS-NUCLEUS POTENTIAL ENERGY =     208.5782199871
                                      ------------------
             TOTAL POTENTIAL ENERGY =    -464.4474608895
               TOTAL KINETIC ENERGY =     231.3368621408
                 VIRIAL RATIO (V/T) =       2.0076673324

          ---------------------------------------
          MULLIKEN AND LOWDIN POPULATION ANALYSES
          ---------------------------------------

     ATOMIC MULLIKEN POPULATION IN EACH MOLECULAR ORBITAL

                      1          2          3          4          5

                  2.000000   2.000000   2.000000   2.000000   2.000000

    1             1.000150   0.993751   0.000495   0.000099   0.003823
    2             0.993650   1.000252   0.000298   0.000296   0.001747
    3             0.001557   0.001500   0.670429   0.324706   0.692008
    4             0.001557   0.001500   0.675988   0.327450   0.686271
    5             0.001547   0.001510   0.327244   0.675842   0.306444
    6             0.001547   0.001510   0.324768   0.670718   0.308755
    7            -0.000000   0.000002   0.000152   0.000066   0.000113
    8            -0.000002  -0.000008   0.000114   0.000083   0.000214
    9            -0.000000   0.000002   0.000076   0.000142   0.000041
   10            -0.000002  -0.000008   0.000045   0.000153   0.000109
   11            -0.000000   0.000002   0.000076   0.000143   0.000041
   12            -0.000002  -0.000008   0.000045   0.000154   0.000109
   13            -0.000000   0.000002   0.000153   0.000067   0.000112
   14            -0.000002  -0.000008   0.000116   0.000083   0.000213

                      6          7          8          9         10

                  2.000000   2.000000   2.000000   2.000000   2.000000

    1             0.001499   0.518289   0.340302   0.178045   0.103130
    2             0.003575   0.518322   0.340324   0.178057   0.103130
    3             0.309028   0.221509   0.292041   0.318649   0.349531
    4             0.306463   0.221510   0.292052   0.318649   0.349529
    5             0.686641   0.221508   0.292034   0.318656   0.349522
    6             0.691930   0.221512   0.292047   0.318653   0.349518
    7             0.000074   0.007486   0.025455   0.031916   0.049094
    8             0.000055   0.011852   0.012345   0.060405   0.049818
    9             0.000145   0.007484   0.025456   0.031918   0.049094
   10             0.000160   0.011854   0.012344   0.060406   0.049815
   11             0.000144   0.007484   0.025455   0.031917   0.049093
   12             0.000159   0.011854   0.012345   0.060406   0.049816
   13             0.000073   0.007486   0.025455   0.031917   0.049095
   14             0.000054   0.011852   0.012345   0.060405   0.049816

                     11         12         13         14         15

                  2.000000   2.000000   2.000000   2.000000   2.000000

    1             0.353684   0.164191   0.168540   0.220244   0.022445
    2             0.353684   0.164193   0.168531   0.220268   0.022447
    3             0.203828   0.276437   0.262454   0.270800   0.276193
    4             0.203827   0.276436   0.262451   0.270804   0.276209
    5             0.203828   0.276431   0.262458   0.270796   0.276194
    6             0.203829   0.276434   0.262457   0.270793   0.276199
    7             0.083748   0.063139   0.008915   0.116316   0.126300
    8             0.035582   0.078332   0.144364   0.002755   0.086275
    9             0.083748   0.063138   0.008914   0.116320   0.126300
   10             0.035581   0.078332   0.144361   0.002755   0.086275
   11             0.083748   0.063137   0.008914   0.116320   0.126295
   12             0.035582   0.078331   0.144362   0.002755   0.086279
   13             0.083748   0.063139   0.008915   0.116318   0.126309
   14             0.035581   0.078331   0.144364   0.002755   0.086280

                     16         17         18         19         20

                  2.000000   2.000000   2.000000   2.000000   2.000000

    1             0.175863   0.092649   0.093842   0.415990   0.581965
    2             0.175919   0.092600   0.093834   0.415970   0.581962
    3             0.287807   0.238833   0.270325   0.151164   0.209019
    4             0.287794   0.238827   0.270321   0.151162   0.209019
    5             0.287793   0.238859   0.270311   0.151170   0.209017
    6             0.287778   0.238864   0.270305   0.151172   0.209018
    7             0.123052   0.043517   0.031064   0.120665   0.000000
    8             0.001231   0.171305   0.151703   0.020174   0.000000
    9             0.123013   0.043549   0.031062   0.120677   0.000000
   10             0.001227   0.171319   0.151697   0.020178   0.000000
   11             0.123021   0.043546   0.031064   0.120673   0.000000
   12             0.001227   0.171314   0.151698   0.020174   0.000000
   13             0.123045   0.043514   0.031067   0.120661   0.000000
   14             0.001231   0.171303   0.151708   0.020171   0.000000

                     21         22

                  2.000000   2.000000

    1             0.362638   0.011257
    2             0.362645   0.011258
    3             0.318680   0.494368
    4             0.318680   0.494368
    5             0.318677   0.494376
    6             0.318679   0.494374
    7             0.000000   0.000000
    8             0.000000   0.000000
    9             0.000000   0.000000
   10             0.000000   0.000000
   11             0.000000   0.000000
   12             0.000000   0.000000
   13             0.000000   0.000000
   14             0.000000   0.000000

               ----- POPULATIONS IN EACH AO -----
                             MULLIKEN      LOWDIN
              1  C  1  S      1.99384     1.97751
              2  C  1  S      0.70504     0.35262
              3  C  1  X      0.54197     0.47971
              4  C  1  Y      0.77605     0.66920
              5  C  1  Z      0.73053     0.64196
              6  C  1  S      0.42219     0.27253
              7  C  1  X      0.39677     0.44852
              8  C  1  Y      0.07380     0.31739
              9  C  1  Z      0.13461     0.32434
             10  C  1 XX     -0.02236     0.09942
             11  C  1 YY      0.00888     0.17643
             12  C  1 ZZ      0.00994     0.16770
             13  C  1 XY      0.01126     0.02307
             14  C  1 XZ      0.00586     0.01083
             15  C  1 YZ      0.01452     0.02965
             16  C  2  S      1.99384     1.97751
             17  C  2  S      0.70504     0.35262
             18  C  2  X      0.54197     0.47971
             19  C  2  Y      0.77605     0.66920
             20  C  2  Z      0.73053     0.64196
             21  C  2  S      0.42224     0.27253
             22  C  2  X      0.39677     0.44852
             23  C  2  Y      0.07383     0.31739
             24  C  2  Z      0.13460     0.32433
             25  C  2 XX     -0.02237     0.09942
             26  C  2 YY      0.00888     0.17644
             27  C  2 ZZ      0.00994     0.16770
             28  C  2 XY      0.01126     0.02307
             29  C  2 XZ      0.00586     0.01083
             30  C  2 YZ      0.01452     0.02965
             31  C  3  S      1.99368     1.98011
             32  C  3  S      0.69568     0.37128
             33  C  3  X      0.51576     0.49443
             34  C  3  Y      0.75703     0.66938
             35  C  3  Z      0.74234     0.65807
             36  C  3  S      0.60903     0.33275
             37  C  3  X      0.50166     0.51662
             38  C  3  Y      0.28045     0.38967
             39  C  3  Z      0.31655     0.43250
             40  C  3 XX     -0.02439     0.10659
             41  C  3 YY      0.01798     0.18464
             42  C  3 ZZ      0.02040     0.17965
             43  C  3 XY      0.00359     0.00616
             44  C  3 XZ      0.00106     0.00173
             45  C  3 YZ      0.01004     0.01798
             46  C  4  S      1.99368     1.98011
             47  C  4  S      0.69568     0.37128
             48  C  4  X      0.51576     0.49443
             49  C  4  Y      0.75703     0.66938
             50  C  4  Z      0.74234     0.65807
             51  C  4  S      0.60904     0.33275
             52  C  4  X      0.50166     0.51662
             53  C  4  Y      0.28045     0.38967
             54  C  4  Z      0.31655     0.43250
             55  C  4 XX     -0.02439     0.10659
             56  C  4 YY      0.01798     0.18464
             57  C  4 ZZ      0.02040     0.17965
             58  C  4 XY      0.00359     0.00616
             59  C  4 XZ      0.00106     0.00173
             60  C  4 YZ      0.01004     0.01798
             61  C  5  S      1.99368     1.98011
             62  C  5  S      0.69568     0.37128
             63  C  5  X      0.51577     0.49443
             64  C  5  Y      0.75703     0.66938
             65  C  5  Z      0.74234     0.65807
             66  C  5  S      0.60903     0.33275
             67  C  5  X      0.50166     0.51662
             68  C  5  Y      0.28045     0.38966
             69  C  5  Z      0.31655     0.43250
             70  C  5 XX     -0.02439     0.10659
             71  C  5 YY      0.01798     0.18464
             72  C  5 ZZ      0.02040     0.17965
             73  C  5 XY      0.00359     0.00616
             74  C  5 XZ      0.00106     0.00173
             75  C  5 YZ      0.01004     0.01798
             76  C  6  S      1.99368     1.98011
             77  C  6  S      0.69568     0.37128
             78  C  6  X      0.51577     0.49443
             79  C  6  Y      0.75703     0.66938
             80  C  6  Z      0.74234     0.65807
             81  C  6  S      0.60904     0.33275
             82  C  6  X      0.50166     0.51662
             83  C  6  Y      0.28045     0.38966
             84  C  6  Z      0.31654     0.43250
             85  C  6 XX     -0.02439     0.10659
             86  C  6 YY      0.01798     0.18464
             87  C  6 ZZ      0.02040     0.17965
             88  C  6 XY      0.00359     0.00616
             89  C  6 XZ      0.00106     0.00173
             90  C  6 YZ      0.01004     0.01798
             91  H  7  S      0.52819     0.48434
             92  H  7  S      0.30289     0.34875
             93  H  8  S      0.52981     0.48331
             94  H  8  S      0.29679     0.34662
             95  H  9  S      0.52819     0.48434
             96  H  9  S      0.30289     0.34875
             97  H 10  S      0.52981     0.48331
             98  H 10  S      0.29679     0.34662
             99  H 11  S      0.52819     0.48434
            100  H 11  S      0.30289     0.34875
            101  H 12  S      0.52981     0.48331
            102  H 12  S      0.29679     0.34662
            103  H 13  S      0.52819     0.48434
            104  H 13  S      0.30289     0.34875
            105  H 14  S      0.52981     0.48331
            106  H 14  S      0.29679     0.34662

          ----- MULLIKEN ATOMIC OVERLAP POPULATIONS -----
          (OFF-DIAGONAL ELEMENTS NEED TO BE MULTIPLIED BY 2)

             1           2           3           4           5

    1    4.5148759
    2    0.4253516   4.5149382
    3    0.5319275  -0.0439273   5.3144197
    4    0.5319442  -0.0439266  -0.0997287   5.3144025
    5   -0.0439499   0.5319171  -0.0063196   0.0056651   5.3144241
    6   -0.0439493   0.5319340   0.0056652  -0.0063188  -0.0997106
    7   -0.0281903   0.0035626   0.3717347  -0.0069698   0.0002268
    8   -0.0220466  -0.0099859   0.3646386   0.0053493   0.0041251
    9    0.0035642  -0.0281827  -0.0001408   0.0002268  -0.0069744
   10   -0.0099840  -0.0220538  -0.0001303   0.0041219   0.0053498
   11    0.0035637  -0.0281872   0.0002268  -0.0001408   0.3717298
   12   -0.0099826  -0.0220534   0.0041218  -0.0001302   0.3646465
   13   -0.0281866   0.0035631  -0.0069722   0.3717338  -0.0001408
   14   -0.0220467  -0.0099874   0.0053500   0.3646378  -0.0001305

             6           7           8           9          10

    6    5.3144078
    7   -0.0001408   0.5193416
    8   -0.0001304  -0.0339478   0.5156635
    9    0.3717285   0.0000022  -0.0000100   0.5193503
   10    0.3646457  -0.0000100   0.0000096  -0.0339500   0.5156687
   11   -0.0069717   0.0000001  -0.0000241   0.0053829   0.0001048
   12    0.0053492  -0.0000241   0.0030263   0.0001048  -0.0001750
   13    0.0002268   0.0053825   0.0001049   0.0000001  -0.0000241
   14    0.0041256   0.0001049  -0.0001751  -0.0000240   0.0030257

            11          12          13          14

   11    0.5193458
   12   -0.0339483   0.5156642
   13    0.0000022  -0.0000100   0.5193455
   14   -0.0000100   0.0000096  -0.0339489   0.5156678

          TOTAL MULLIKEN AND LOWDIN ATOMIC POPULATIONS
       ATOM         MULL.POP.    CHARGE          LOW.POP.     CHARGE
    1 C             5.802891    0.197109         5.990873    0.009127
    2 C             5.802962    0.197038         5.990878    0.009122
    3 C             6.440866   -0.440866         6.341545   -0.341545
    4 C             6.440867   -0.440867         6.341545   -0.341545
    5 C             6.440859   -0.440859         6.341547   -0.341547
    6 C             6.440861   -0.440861         6.341547   -0.341547
    7 H             0.831073    0.168927         0.833092    0.166908
    8 H             0.826597    0.173403         0.829924    0.170076
    9 H             0.831078    0.168922         0.833093    0.166907
   10 H             0.826599    0.173401         0.829923    0.170077
   11 H             0.831074    0.168926         0.833093    0.166907
   12 H             0.826599    0.173401         0.829923    0.170077
   13 H             0.831076    0.168924         0.833092    0.166908
   14 H             0.826599    0.173401         0.829924    0.170076

          -------------------------------
          BOND ORDER AND VALENCE ANALYSIS     BOND ORDER THRESHOLD=0.050
          -------------------------------

                   BOND                       BOND                       BOND
  ATOM PAIR DIST  ORDER      ATOM PAIR DIST  ORDER      ATOM PAIR DIST  ORDER
    1   2  1.503  1.047        1   3  1.378  1.459        1   4  1.378  1.459
    2   5  1.378  1.459        2   6  1.378  1.459        3   5  2.904  0.155
    3   6  3.750  0.363        3   7  1.076  0.937        3   8  1.073  0.928
    4   5  3.750  0.363        4   6  2.904  0.155        4  13  1.076  0.937
    4  14  1.073  0.928        5  11  1.076  0.937        5  12  1.073  0.928
    6   9  1.076  0.937        6  10  1.073  0.928

                       TOTAL       BONDED        FREE
      ATOM            VALENCE     VALENCE     VALENCE
    1 C                 3.963       3.963      -0.000
    2 C                 3.963       3.963      -0.000
    3 C                 3.840       3.840       0.000
    4 C                 3.840       3.840       0.000
    5 C                 3.840       3.840       0.000
    6 C                 3.840       3.840       0.000
    7 H                 0.937       0.937       0.000
    8 H                 0.936       0.936       0.000
    9 H                 0.937       0.937       0.000
   10 H                 0.936       0.936      -0.000
   11 H                 0.937       0.937       0.000
   12 H                 0.936       0.936      -0.000
   13 H                 0.937       0.937       0.000
   14 H                 0.936       0.936       0.000

          ---------------------
          ELECTROSTATIC MOMENTS
          ---------------------

 POINT   1           X           Y           Z (BOHR)    CHARGE
                 0.000000   -0.000000   -0.000004        0.00 (A.U.)
         DX          DY          DZ         /D/  (DEBYE)
     0.000000    0.000002    0.000053    0.000053
 ...... END OF PROPERTY EVALUATION ......
 CPU     0: STEP CPU TIME=     0.02 TOTAL CPU TIME=          0.8 (      0.0 MIN)
 TOTAL WALL CLOCK TIME=          1.5 SECONDS, CPU UTILIZATION IS    55.78%
                580000  WORDS OF DYNAMIC MEMORY USED
 EXECUTION OF GAMESS TERMINATED NORMALLY Fri Jun 16 15:06:21 2023
 DDI: 263640 bytes (0.3 MB / 0 MWords) used by master data server.

 ----------------------------------------
 CPU timing information for all processes
 ========================================
 0: 0.597 + 0.241 = 0.839
 1: 0.596 + 0.82 = 0.678
 2: 0.577 + 0.94 = 0.672
 3: 0.615 + 0.78 = 0.693
 4: 0.604 + 0.79 = 0.683
 5: 0.609 + 0.54 = 0.664
 6: 0.584 + 0.111 = 0.696
 7: 0.592 + 0.78 = 0.670
 8: 0.595 + 0.56 = 0.652
 9: 0.577 + 0.94 = 0.671
 10: 0.580 + 0.90 = 0.671
 11: 0.588 + 0.70 = 0.658
 ----------------------------------------
 ddikick.x: exited gracefully.
unset echo
----- accounting info -----
Files used on the master node cpn-p27-16.compute.cbls.ccr.buffalo.edu were:
-rw-rw-r-- 1 mofaruque mofaruque   185356 Jun 16 15:06 /user/mofaruque/work-dir/gam-scr/tme-00-rhf.dat
-rw-r--r-- 1 mofaruque mofaruque     1365 Jun 16 15:06 /user/mofaruque/work-dir/gam-scr/tme-00-rhf.F05
-rw-rw-r-- 1 mofaruque mofaruque  6660592 Jun 16 15:06 /user/mofaruque/work-dir/gam-scr/tme-00-rhf.F08
-rw-rw-r-- 1 mofaruque mofaruque  6480576 Jun 16 15:06 /user/mofaruque/work-dir/gam-scr/tme-00-rhf.F08.001
-rw-rw-r-- 1 mofaruque mofaruque  7740688 Jun 16 15:06 /user/mofaruque/work-dir/gam-scr/tme-00-rhf.F08.002
-rw-rw-r-- 1 mofaruque mofaruque  8280736 Jun 16 15:06 /user/mofaruque/work-dir/gam-scr/tme-00-rhf.F08.003
-rw-rw-r-- 1 mofaruque mofaruque  6480576 Jun 16 15:06 /user/mofaruque/work-dir/gam-scr/tme-00-rhf.F08.004
-rw-rw-r-- 1 mofaruque mofaruque  6840608 Jun 16 15:06 /user/mofaruque/work-dir/gam-scr/tme-00-rhf.F08.005
-rw-rw-r-- 1 mofaruque mofaruque  9360832 Jun 16 15:06 /user/mofaruque/work-dir/gam-scr/tme-00-rhf.F08.006
-rw-rw-r-- 1 mofaruque mofaruque  8100720 Jun 16 15:06 /user/mofaruque/work-dir/gam-scr/tme-00-rhf.F08.007
-rw-rw-r-- 1 mofaruque mofaruque  6660592 Jun 16 15:06 /user/mofaruque/work-dir/gam-scr/tme-00-rhf.F08.008
-rw-rw-r-- 1 mofaruque mofaruque  7920704 Jun 16 15:06 /user/mofaruque/work-dir/gam-scr/tme-00-rhf.F08.009
-rw-rw-r-- 1 mofaruque mofaruque  8640768 Jun 16 15:06 /user/mofaruque/work-dir/gam-scr/tme-00-rhf.F08.010
-rw-rw-r-- 1 mofaruque mofaruque  7380656 Jun 16 15:06 /user/mofaruque/work-dir/gam-scr/tme-00-rhf.F08.011
-rw-rw-r-- 1 mofaruque mofaruque 44236800 Jun 16 15:06 /user/mofaruque/work-dir/gam-scr/tme-00-rhf.F10
ls: No match.
ls: No match.
ls: No match.
Fri Jun 16 15:06:24 EDT 2023
0.289u 0.159s 0:05.29 8.1%	0+0k 8+200io 0pf+0w
