----- GAMESS execution script 'rungms' -----
This job is running on host cpn-p27-21.compute.cbls.ccr.buffalo.edu
under operating system Linux at Fri Jun 16 15:55:10 EDT 2023
Available scratch disk space (Kbyte units) at beginning of the job is
Filesystem                      1K-blocks    Used Available Use% Mounted on
vast.cbls.ccr.buffalo.edu:/user  10742784 2312192   8430592  22% /user
GAMESS temporary binary files will be written to /user/mofaruque/work-dir/gam-scr
GAMESS supplementary output files will be written to /user/mofaruque/work-dir/gam-scr
Copying input file tme_90_gms.inp to your run's scratch directory...
cp tme_90_gms.inp /user/mofaruque/work-dir/gam-scr/tme_90_gms.F05
unset echo
 
Assuming a single but multicore node.
 
/projects/academic/cyberwksp21/Software/gamess-2018/qmmm-reks-2018-6.3/ddikick.x /projects/academic/cyberwksp21/Software/gamess-2018/qmmm-reks-2018-6.3/gamess.01.x tme_90_gms -ddi 1 12 cpn-p27-21.compute.cbls.ccr.buffalo.edu:cpus=12 -scr /user/mofaruque/work-dir/gam-scr

 Distributed Data Interface kickoff program.
 Initiating 12 compute processes on 1 nodes to run the following command:
 /projects/academic/cyberwksp21/Software/gamess-2018/qmmm-reks-2018-6.3/gamess.01.x tme_90_gms 

          ******************************************************
          *         GAMESS VERSION = 30 SEP 2018 (R3)         *
          *             FROM IOWA STATE UNIVERSITY             *
          * M.W.SCHMIDT, K.K.BALDRIDGE, J.A.BOATZ, S.T.ELBERT, *
          *   M.S.GORDON, J.H.JENSEN, S.KOSEKI, N.MATSUNAGA,   *
          *          K.A.NGUYEN, S.J.SU, T.L.WINDUS,           *
          *       TOGETHER WITH M.DUPUIS, J.A.MONTGOMERY       *
          *         J.COMPUT.CHEM.  14, 1347-1363(1993)        *
          **************** 64 BIT INTEL VERSION ****************

  SINCE 1993, STUDENTS AND POSTDOCS WORKING AT IOWA STATE UNIVERSITY
  AND ALSO IN THEIR VARIOUS JOBS AFTER LEAVING ISU HAVE MADE IMPORTANT
  CONTRIBUTIONS TO THE CODE:
     IVANA ADAMOVIC, CHRISTINE AIKENS, YURI ALEXEEV, POOJA ARORA,
     ANDREY ASADCHEV, ROB BELL, PRADIPTA BANDYOPADHYAY, JONATHAN BENTZ,
     BRETT BODE, KURT BRORSEN, CALEB CARLIN, GALINA CHABAN, WEI CHEN,
     CHEOL HO CHOI, PAUL DAY, ALBERT DEFUSCO, NUWAN DESILVA, TIM DUDLEY,
     DMITRI FEDOROV, ALEX FINDLATER, GRAHAM FLETCHER, MARK FREITAG,
     KURT GLAESEMANN, ANASTASIA GUNINA,
     DAN KEMP, GRANT MERRILL, NORIYUKI MINEZAWA, JONATHAN MULLIN,
     TAKESHI NAGATA, SEAN NEDD, HEATHER NETZLOFF, BOSILJKA NJEGIC, RYAN OLSON,
     MIKE PAK, BUU PHAM,
     SPENCER PRUITT, LUKE ROSKOP, JIM SHOEMAKER, LYUDMILA SLIPCHENKO,
     TONY SMITH, SAROM SOK LEANG, JIE SONG, TETSUYA TAKETSUGU, SIMON WEBB,
     PENG XU, SOOHAENG YOO, FEDERICO ZAHARIEV

  ADDITIONAL CODE HAS BEEN PROVIDED BY COLLABORATORS IN OTHER GROUPS:
     IOWA STATE UNIVERSITY:
          JOE IVANIC, AARON WEST, LAIMUTIS BYTAUTAS, KLAUS RUEDENBERG
     UNIVERSITY OF TOKYO: KIMIHIKO HIRAO, TAKAHITO NAKAJIMA,
          TAKAO TSUNEDA, MUNEAKI KAMIYA, SUSUMU YANAGISAWA,
          KIYOSHI YAGI, MAHITO CHIBA, SEIKEN TOKURA, NAOAKI KAWAKAMI
     UNIVERSITY OF AARHUS: FRANK JENSEN
     UNIVERSITY OF IOWA: VISVALDAS KAIRYS, HUI LI
     NATIONAL INST. OF STANDARDS AND TECHNOLOGY: WALT STEVENS, DAVID GARMER
     UNIVERSITY OF PISA: BENEDETTA MENNUCCI, JACOPO TOMASI
     UNIVERSITY OF MEMPHIS: HENRY KURTZ, PRAKASHAN KORAMBATH
     UNIVERSITY OF ALBERTA: TOBY ZENG, MARIUSZ KLOBUKOWSKI
     UNIVERSITY OF NEW ENGLAND: MARK SPACKMAN
     MIE UNIVERSITY: HIROAKI UMEDA
     NAT. INST. OF ADVANCED INDUSTRIAL SCIENCE AND TECHNOLOGY: KAZUO KITAURA
     MICHIGAN STATE UNIVERSITY:
          KAROL KOWALSKI, MARTA WLOCH, JEFFREY GOUR, JESSE LUTZ,
          WEI LI, JUN SHEN, J. EMILIANO DEUSTUA, PIOTR PIECUCH
     UNIVERSITY OF MINNESOTA:
          YINAN SHU
     UNIVERSITY OF SILESIA: MONIKA MUSIAL, STANISLAW KUCHARSKI
     FACULTES UNIVERSITAIRES NOTRE-DAME DE LA PAIX:
          OLIVIER QUINET, BENOIT CHAMPAGNE
     UNIVERSITY OF CALIFORNIA - SANTA BARBARA: BERNARD KIRTMAN
     INSTITUTE FOR MOLECULAR SCIENCE:
          KAZUYA ISHIMURA, MICHIO KATOUDA, AND SHIGERU NAGASE
     UNIVERSITY OF NOTRE DAME: ANNA POMOGAEVA, DAN CHIPMAN
     KYUSHU UNIVERSITY:
          HARUYUKI NAKANO,
          FENG LONG GU, JACEK KORCHOWIEC, MARCIN MAKOWSKI, AND YURIKO AOKI,
          HIROTOSHI MORI AND EISAKU MIYOSHI
     PENNSYLVANIA STATE UNIVERSITY:
          TZVETELIN IORDANOV, CHET SWALINA, JONATHAN SKONE,
          SHARON HAMMES-SCHIFFER
     WASEDA UNIVERSITY:
          MASATO KOBAYASHI, TOMOKO AKAMA, TSUGUKI TOUMA,
          TAKESHI YOSHIKAWA, YASUHIRO IKABATA, JUNJI SEINO,
          YUYA NAKAJIMA, HIROMI NAKAI
     NANJING UNIVERSITY: SHUHUA LI
     UNIVERSITY OF NEBRASKA:
          PEIFENG SU, DEJUN SI, NANDUN THELLAMUREGE, YALI WANG, HUI LI
     UNIVERSITY OF ZURICH: ROBERTO PEVERATI, KIM BALDRIDGE
     N. COPERNICUS UNIVERSITY AND JACKSON STATE UNIVERSITY:
          MARIA BARYSZ
     UNIVERSITY OF COPENHAGEN: Jimmy Kromann, CASPER STEINMANN
     TOKYO INSTITUTE OF TECHNOLOGY: HIROYA NAKATA
     NAGOYA UNIVERSITY: YOSHIO NISHIMOTO, STEPHAN IRLE
     MOSCOW STATE UNIVERSITY: VLADIMIR MIRONOV


 PARALLEL VERSION RUNNING ON       12 PROCESSORS IN        1 NODES.

 EXECUTION OF GAMESS BEGUN Fri Jun 16 15:55:11 2023

            ECHO OF THE FIRST FEW INPUT CARDS -
 INPUT CARD> $contrl scftyp=reks runtyp=gradient dfttyp=bhhlyp icharg=0                     
 INPUT CARD>         maxit=500 mult=1                                                       
 INPUT CARD> $end                                                                           
 INPUT CARD> $dft sg1=.true. $end                                                           
 INPUT CARD> $scf                                                                           
 INPUT CARD> nconv=6                                                                        
 INPUT CARD> npunch=2                                                                       
 INPUT CARD> $end                                                                           
 INPUT CARD>$reks                                                                           
 INPUT CARD> rexType=2                                                                      
 INPUT CARD> rexTarget=1                                                                    
 INPUT CARD>wpps=0.95                                                                       
 INPUT CARD>rexShift=0.7                                                                    
 INPUT CARD>rexDIIS=no                                                                      
 INPUT CARD>$end                                                                            
 INPUT CARD> $basis gbasis=n31 ngauss=6 ndfunc=1 $end                                       
 INPUT CARD> $guess guess=moread norb=106 $end                                              
 INPUT CARD> $system timlim=999999100 mwords=700 $end                                       
 INPUT CARD> $data                                                                          
 INPUT CARD>Comment line                                                                    
 INPUT CARD>C1                                                                              
 INPUT CARD>C   6.0     0.00000396    -0.00001894     0.74792621                            
 INPUT CARD>C   6.0    -0.00000551    -0.00001894    -0.74790040                            
 INPUT CARD>C   6.0    -0.85607880     0.85607083     1.39996884                            
 INPUT CARD>C   6.0     0.85608904    -0.85607195     1.39998773                            
 INPUT CARD>C   6.0     0.85607584     0.85606715    -1.39996389                            
 INPUT CARD>C   6.0    -0.85608615    -0.85606915    -1.39998554                            
 INPUT CARD>H   1.0    -0.89344153     0.89345714     2.47648677                            
 INPUT CARD>H   1.0    -1.51091174     1.51089102     0.85298135                            
 INPUT CARD>H   1.0    -0.89344613    -0.89340433    -2.47650380                            
 INPUT CARD>H   1.0    -1.51093307    -1.51091123    -0.85303633                            
 INPUT CARD>H   1.0     0.89342348     0.89343662    -2.47648282                            
 INPUT CARD>H   1.0     1.51091826     1.51089718    -0.85299874                            
 INPUT CARD>H   1.0     0.89346629    -0.89342182     2.47650531                            
 INPUT CARD>H   1.0     1.51092605    -1.51090360     0.85301532                            
 INPUT CARD> $end                                                                           
 INPUT CARD> $VEC                                                                           
 INPUT CARD> 1  1 7.02878298e-01 2.93594555e-02 3.25451650e-09 1.47918629e-08-1.61742699e-04
 INPUT CARD> 1  2-1.18442767e-02 4.61202431e-08-1.21038456e-07-1.01543359e-03-4.26882110e-03
 INPUT CARD> 1  3-4.26882025e-03-4.55200789e-03-2.91228953e-04 1.46861641e-08-1.14812682e-08
 INPUT CARD> 1  4 7.01209666e-01 2.92910678e-02-1.89137288e-09 1.46055795e-08 1.61272875e-04
 INPUT CARD> 1  5-1.18165118e-02-7.00316641e-08-1.37063355e-07 1.02071980e-03-4.25868386e-03
 INPUT CARD> 1  6-4.25868316e-03-4.54250130e-03 2.90367169e-04 1.62984186e-08 1.37721188e-08
 INPUT CARD> 1  7 2.38075451e-02 4.85905482e-04-1.42553445e-04 1.42562385e-04 2.61278356e-04
 INPUT CARD> 1  8 4.05683638e-03 1.15590794e-03-1.15593139e-03-1.76768387e-03-3.89177969e-04
 INPUT CARD> 1  9-3.89184278e-04-3.49765578e-04 2.53869563e-05 5.80927801e-05-5.80975925e-05
 INPUT CARD> 1 10 2.38073959e-02 4.85892967e-04 1.42568009e-04-1.42561197e-04 2.61289315e-04
 INPUT CARD> 1 11 4.05672399e-03-1.15589135e-03 1.15587700e-03-1.76761879e-03-3.89176869e-04
 INPUT CARD> 1 12-3.89170749e-04-3.49774938e-04 2.53837231e-05-5.80963664e-05 5.80914263e-05
 INPUT CARD> 1 13 2.37485000e-02 4.83494251e-04 1.42226342e-04 1.42234429e-04-2.61311291e-04
  700000000 WORDS OF MEMORY AVAILABLE

 ERROR: MAXIT MUST BE BETWEEN 0 AND 200, NOT     500

     BASIS OPTIONS
     -------------
     GBASIS=N31          IGAUSS=       6      POLAR=POPN31  
     NDFUNC=       1     NFFUNC=       0     DIFFSP=       F
     NPFUNC=       0      DIFFS=       F     BASNAM=        


     RUN TITLE
     ---------
 Comment line                                                                    

 THE POINT GROUP OF THE MOLECULE IS C1      
 THE ORDER OF THE PRINCIPAL AXIS IS     0

 ATOM      ATOMIC                      COORDINATES (BOHR)
           CHARGE         X                   Y                   Z
 C           6.0     0.0000074833       -0.0000357914        1.4133755959
 C           6.0    -0.0000104124       -0.0000357914       -1.4133268221
 C           6.0    -1.6177543559        1.6177392948        2.6455574989
 C           6.0     1.6177737067       -1.6177414113        2.6455931959
 C           6.0     1.6177487623        1.6177323406       -2.6455481448
 C           6.0    -1.6177682454       -1.6177361200       -2.6455890574
 H           1.0    -1.6883596778        1.6883891764        4.6798814075
 H           1.0    -2.8552091802        2.8551700251        1.6119010241
 H           1.0    -1.6883683705       -1.6882893799       -4.6799135896
 H           1.0    -2.8552494881       -2.8552082165       -1.6120049213
 H           1.0     1.6883255682        1.6883503992       -4.6798739431
 H           1.0     2.8552215012        2.8551816658       -1.6119338865
 H           1.0     1.6884064674       -1.6883224313        4.6799164430
 H           1.0     2.8552362222       -2.8551937979        1.6119652181

          INTERNUCLEAR DISTANCES (ANGS.)
          ------------------------------

                1 C          2 C          3 C          4 C          5 C     

   1 C       0.0000000    1.4958266 *  1.3751098 *  1.3750973 *  2.4655982 *
   2 C       1.4958266 *  0.0000000    2.4655818 *  2.4655928 *  1.3751165 *
   3 C       1.3751098 *  2.4655818 *  0.0000000    2.4213533 *  3.2819349  
   4 C       1.3750973 *  2.4655928 *  2.4213533 *  0.0000000    3.2819429  
   5 C       2.4655982 *  1.3751165 *  3.2819349    3.2819429    0.0000000  
   6 C       2.4656109 *  1.3751040 *  3.2819457    3.2819802    2.4213445 *
   7 H       2.1411366 *  3.4631200    1.0778147 *  2.6982512 *  4.2531258  
   8 H       2.1393344 *  2.6699268 *  1.0755422 *  3.3918170    3.3327446  
   9 H       3.4631401    2.1411313 *  4.2531282    4.2531698    2.6982246 *
  10 H       2.6699826 *  2.1393343 *  3.3327872    3.3328255    3.3918207  
  11 H       3.4631308    2.1411388 *  4.2531203    4.2531398    1.0778146 *
  12 H       2.6699607 *  2.1393466 *  3.3327670    3.3327604    1.0755426 *
  13 H       2.1411281 *  3.4631276    2.6982519 *  1.0778136 *  4.2531310  
  14 H       2.1393227 *  2.6699471 *  3.3918193    1.0755440 *  3.3327608  

                6 C          7 H          8 H          9 H         10 H     

   1 C       2.4656109 *  2.1411366 *  2.1393344 *  3.4631401    2.6699826 *
   2 C       1.3751040 *  3.4631200    2.6699268 *  2.1411313 *  2.1393343 *
   3 C       3.2819457    1.0778147 *  1.0755422 *  4.2531282    3.3327872  
   4 C       3.2819802    2.6982512 *  3.3918170    4.2531698    3.3328255  
   5 C       2.4213445 *  4.2531258    3.3327446    2.6982246 *  3.3918207  
   6 C       0.0000000    4.2531489    3.3327401    1.0778132 *  1.0755445 *
   7 H       4.2531489    0.0000000    1.8434381 *  5.2654524    4.1530720  
   8 H       3.3327401    1.8434381 *  0.0000000    4.1529955    3.4701275  
   9 H       1.0778132 *  5.2654524    4.1529955    0.0000000    1.8434347 *
  10 H       1.0755445 *  4.1530720    3.4701275    1.8434347 *  0.0000000  
  11 H       2.6982218 *  5.2654339    4.1530001    2.5269950 *  3.7679434  
  12 H       3.3918187    4.1530293    3.4701332    3.7679441    4.2735128  
  13 H       4.2531765    2.5270489 *  3.7679682    5.2654872    4.1531045  
  14 H       3.3328018    3.7679694    4.2734935    4.1530722    3.4701938  

               11 H         12 H         13 H         14 H     

   1 C       3.4631308    2.6699607 *  2.1411281 *  2.1393227 *
   2 C       2.1411388 *  2.1393466 *  3.4631276    2.6699471 *
   3 C       4.2531203    3.3327670    2.6982519 *  3.3918193  
   4 C       4.2531398    3.3327604    1.0778136 *  1.0755440 *
   5 C       1.0778146 *  1.0755426 *  4.2531310    3.3327608  
   6 C       2.6982218 *  3.3918187    4.2531765    3.3328018  
   7 H       5.2654339    4.1530293    2.5270489 *  3.7679694  
   8 H       4.1530001    3.4701332    3.7679682    4.2734935  
   9 H       2.5269950 *  3.7679441    5.2654872    4.1530722  
  10 H       3.7679434    4.2735128    4.1531045    3.4701938  
  11 H       0.0000000    1.8434364 *  5.2654491    4.1530373  
  12 H       1.8434364 *  0.0000000    4.1530223    3.4701245  
  13 H       5.2654491    4.1530223    0.0000000    1.8434370 *
  14 H       4.1530373    3.4701245    1.8434370 *  0.0000000  

  * ... LESS THAN  3.000


     ATOMIC BASIS SET
     ----------------
 THE CONTRACTED PRIMITIVE FUNCTIONS HAVE BEEN UNNORMALIZED
 THE CONTRACTED BASIS FUNCTIONS ARE NOW NORMALIZED TO UNITY

  SHELL TYPE  PRIMITIVE        EXPONENT          CONTRACTION COEFFICIENT(S)

 C         

      1   S       1          3047.5248800    0.001834737132
      1   S       2           457.3695180    0.014037322813
      1   S       3           103.9486850    0.068842622264
      1   S       4            29.2101553    0.232184443216
      1   S       5             9.2866630    0.467941348435
      1   S       6             3.1639270    0.362311985337

      2   L       7             7.8682723   -0.119332419775    0.068999066591
      2   L       8             1.8812885   -0.160854151696    0.316423960957
      2   L       9             0.5442493    1.143456437840    0.744308290898

      3   L      10             0.1687145    1.000000000000    1.000000000000

      4   D      11             0.8000000    1.000000000000

 C         

      5   S      12          3047.5248800    0.001834737132
      5   S      13           457.3695180    0.014037322813
      5   S      14           103.9486850    0.068842622264
      5   S      15            29.2101553    0.232184443216
      5   S      16             9.2866630    0.467941348435
      5   S      17             3.1639270    0.362311985337

      6   L      18             7.8682723   -0.119332419775    0.068999066591
      6   L      19             1.8812885   -0.160854151696    0.316423960957
      6   L      20             0.5442493    1.143456437840    0.744308290898

      7   L      21             0.1687145    1.000000000000    1.000000000000

      8   D      22             0.8000000    1.000000000000

 C         

      9   S      23          3047.5248800    0.001834737132
      9   S      24           457.3695180    0.014037322813
      9   S      25           103.9486850    0.068842622264
      9   S      26            29.2101553    0.232184443216
      9   S      27             9.2866630    0.467941348435
      9   S      28             3.1639270    0.362311985337

     10   L      29             7.8682723   -0.119332419775    0.068999066591
     10   L      30             1.8812885   -0.160854151696    0.316423960957
     10   L      31             0.5442493    1.143456437840    0.744308290898

     11   L      32             0.1687145    1.000000000000    1.000000000000

     12   D      33             0.8000000    1.000000000000

 C         

     13   S      34          3047.5248800    0.001834737132
     13   S      35           457.3695180    0.014037322813
     13   S      36           103.9486850    0.068842622264
     13   S      37            29.2101553    0.232184443216
     13   S      38             9.2866630    0.467941348435
     13   S      39             3.1639270    0.362311985337

     14   L      40             7.8682723   -0.119332419775    0.068999066591
     14   L      41             1.8812885   -0.160854151696    0.316423960957
     14   L      42             0.5442493    1.143456437840    0.744308290898

     15   L      43             0.1687145    1.000000000000    1.000000000000

     16   D      44             0.8000000    1.000000000000

 C         

     17   S      45          3047.5248800    0.001834737132
     17   S      46           457.3695180    0.014037322813
     17   S      47           103.9486850    0.068842622264
     17   S      48            29.2101553    0.232184443216
     17   S      49             9.2866630    0.467941348435
     17   S      50             3.1639270    0.362311985337

     18   L      51             7.8682723   -0.119332419775    0.068999066591
     18   L      52             1.8812885   -0.160854151696    0.316423960957
     18   L      53             0.5442493    1.143456437840    0.744308290898

     19   L      54             0.1687145    1.000000000000    1.000000000000

     20   D      55             0.8000000    1.000000000000

 C         

     21   S      56          3047.5248800    0.001834737132
     21   S      57           457.3695180    0.014037322813
     21   S      58           103.9486850    0.068842622264
     21   S      59            29.2101553    0.232184443216
     21   S      60             9.2866630    0.467941348435
     21   S      61             3.1639270    0.362311985337

     22   L      62             7.8682723   -0.119332419775    0.068999066591
     22   L      63             1.8812885   -0.160854151696    0.316423960957
     22   L      64             0.5442493    1.143456437840    0.744308290898

     23   L      65             0.1687145    1.000000000000    1.000000000000

     24   D      66             0.8000000    1.000000000000

 H         

     25   S      67            18.7311370    0.033494604338
     25   S      68             2.8253944    0.234726953484
     25   S      69             0.6401217    0.813757326146

     26   S      70             0.1612778    1.000000000000

 H         

     27   S      71            18.7311370    0.033494604338
     27   S      72             2.8253944    0.234726953484
     27   S      73             0.6401217    0.813757326146

     28   S      74             0.1612778    1.000000000000

 H         

     29   S      75            18.7311370    0.033494604338
     29   S      76             2.8253944    0.234726953484
     29   S      77             0.6401217    0.813757326146

     30   S      78             0.1612778    1.000000000000

 H         

     31   S      79            18.7311370    0.033494604338
     31   S      80             2.8253944    0.234726953484
     31   S      81             0.6401217    0.813757326146

     32   S      82             0.1612778    1.000000000000

 H         

     33   S      83            18.7311370    0.033494604338
     33   S      84             2.8253944    0.234726953484
     33   S      85             0.6401217    0.813757326146

     34   S      86             0.1612778    1.000000000000

 H         

     35   S      87            18.7311370    0.033494604338
     35   S      88             2.8253944    0.234726953484
     35   S      89             0.6401217    0.813757326146

     36   S      90             0.1612778    1.000000000000

 H         

     37   S      91            18.7311370    0.033494604338
     37   S      92             2.8253944    0.234726953484
     37   S      93             0.6401217    0.813757326146

     38   S      94             0.1612778    1.000000000000

 H         

     39   S      95            18.7311370    0.033494604338
     39   S      96             2.8253944    0.234726953484
     39   S      97             0.6401217    0.813757326146

     40   S      98             0.1612778    1.000000000000

 TOTAL NUMBER OF BASIS SET SHELLS             =   40
 NUMBER OF CARTESIAN GAUSSIAN BASIS FUNCTIONS =  106
 NUMBER OF ELECTRONS                          =   44
 CHARGE OF MOLECULE                           =    0
 SPIN MULTIPLICITY                            =    1
 NUMBER OF OCCUPIED ORBITALS (ALPHA)          =   22
 NUMBER OF OCCUPIED ORBITALS (BETA )          =   22
 TOTAL NUMBER OF ATOMS                        =   14
 THE NUCLEAR REPULSION ENERGY IS      208.3466378682
 THE NUCLEAR REPULSION ENERGY IS      208.3466378682

     STANDARD GRID ONE (SG-1) PRUNED GRID OPTIONS
     -------------------------------------------
     DFTTYP=BHHLYP  
     GRID HAS 50 RADIAL POINTS AND AT MOST
      194 ANGULAR POINTS, BEFORE PRUNING
     SWOFF =    5.00E-03 (PURE SCF -> DFT)
     COARSE GRID SWITCHING IS NOT AVAILABLE
     THRESH=    0.00E+00 GTHRE=    1.00E+00

 GRIMME'S EMPIRICAL DISPERSION CORRECTION= F

     $CONTRL OPTIONS
     ---------------
 SCFTYP=REKS         RUNTYP=GRADIENT     EXETYP=RUN     
 MPLEVL=       0     CITYP =NONE         CCTYP =NONE         VBTYP =NONE    
 DFTTYP=BHHLYP       TDDFT =NONE    
 MULT  =       1     ICHARG=       0     NZVAR =       0     COORD =UNIQUE  
 PP    =NONE         RELWFN=NONE         LOCAL =NONE         NUMGRD=       F
 ISPHER=      -1     NOSYM =       0     MAXIT =     500     UNITS =ANGS    
 PLTORB=       F     MOLPLT=       F     AIMPAC=       F     FRIEND=        
 NPRINT=       7     IREST =       0     GEOM  =INPUT   
 NORMF =       0     NORMP =       0     ITOL  =      20     ICUT  =       9
 INTTYP=BEST         GRDTYP=BEST         QMTTOL= 1.0E-06

     $SYSTEM OPTIONS
     ---------------
  REPLICATED MEMORY=   700000000 WORDS (ON EVERY NODE).
 DISTRIBUTED MEMDDI=           0 MILLION WORDS IN AGGREGATE,
 MEMDDI DISTRIBUTED OVER  12 PROCESSORS IS           0 WORDS/PROCESSOR.
 TOTAL MEMORY REQUESTED ON EACH PROCESSOR=   700000000 WORDS.
 TIMLIM=   999999100.00 MINUTES, OR  694443.8 DAYS.
 PARALL= T  BALTYP=  DLB     KDIAG=    0  COREFL= F
 MXSEQ2=     300 MXSEQ3=     150  mem10=         0

          ----------------
          PROPERTIES INPUT
          ----------------

     MOMENTS            FIELD           POTENTIAL          DENSITY
 IEMOM =       1   IEFLD =       0   IEPOT =       0   IEDEN =       0
 WHERE =COMASS     WHERE =NUCLEI     WHERE =NUCLEI     WHERE =NUCLEI  
 OUTPUT=BOTH       OUTPUT=BOTH       OUTPUT=BOTH       OUTPUT=BOTH    
 IEMINT=       0   IEFINT=       0                     IEDINT=       0
                                                       MORB  =       0
          EXTRAPOLATION IN EFFECT
          DIIS IN EFFECT
 ORBITAL PRINTING OPTION: NPREO=     1   106     2     1

 =====> REKS control string found <=====
 $REKS | REXTYPE=2 | REXTARGET=1 |WPPS=0.95 |REXSHIFT=0.7 |REXDIIS=NO |$END

 ======> set rexType to   2
 ======> set rexTarget to   1
 ======> set WPPS to    0.95000000
 ======> set REXSHIFT to    0.70000000
 ======> set REXDIIS to F

 =====> End of REKS control string <=====

     -------------------------------
     INTEGRAL TRANSFORMATION OPTIONS
     -------------------------------
     NWORD  =            0
     CUTOFF = 1.0E-09     MPTRAN =       0
     DIRTRF =       F     AOINTS =DUP     

          ----------------------
          INTEGRAL INPUT OPTIONS
          ----------------------
 NOPK  =       1 NORDER=       0 SCHWRZ=       T

     ------------------------------------------
     THE POINT GROUP IS C1 , NAXIS= 0, ORDER= 1
     ------------------------------------------

     DIMENSIONS OF THE SYMMETRY SUBSPACES ARE
 A   =  106

 ..... DONE SETTING UP THE RUN .....
 CPU     0: STEP CPU TIME=     0.08 TOTAL CPU TIME=          0.1 (      0.0 MIN)
 TOTAL WALL CLOCK TIME=          0.1 SECONDS, CPU UTILIZATION IS    81.82%

                    --------------------------------
                    SINGLE POINT ENERGY AND GRADIENT
                    --------------------------------

          ********************
          1 ELECTRON INTEGRALS
          ********************
 ...... END OF ONE-ELECTRON INTEGRALS ......
 CPU     0: STEP CPU TIME=     0.00 TOTAL CPU TIME=          0.1 (      0.0 MIN)
 TOTAL WALL CLOCK TIME=          0.2 SECONDS, CPU UTILIZATION IS    56.25%

          -------------
          GUESS OPTIONS
          -------------
          GUESS =MOREAD            NORB  =     106          NORDER=       0
          MIX   =       F          PRTMO =       F          PUNMO =       F
          TOLZ  = 1.0E-08          TOLE  = 1.0E-05
          SYMDEN=       F          PURIFY=       F

 INITIAL GUESS ORBITALS GENERATED BY MOREAD   ROUTINE.

 SYMMETRIES FOR INITIAL GUESS ORBITALS FOLLOW.   BOTH SET(S).
    22 ORBITALS ARE OCCUPIED (    6 CORE ORBITALS).
     1=A        2=A        3=A        4=A        5=A        6=A        7=A   
     8=A        9=A       10=A       11=A       12=A       13=A       14=A   
    15=A       16=A       17=A       18=A       19=A       20=A       21=A   
    22=A       23=A       24=A       25=A       26=A       27=A       28=A   
    29=A       30=A       31=A       32=A       33=A       34=A       35=A   
    36=A       37=A       38=A       39=A       40=A       41=A       42=A   
    43=A       44=A       45=A       46=A       47=A       48=A       49=A   
    50=A       51=A       52=A       53=A       54=A       55=A       56=A   
    57=A       58=A       59=A       60=A       61=A       62=A       63=A   
    64=A       65=A       66=A       67=A       68=A       69=A       70=A   
    71=A       72=A       73=A       74=A       75=A       76=A       77=A   
    78=A       79=A       80=A       81=A       82=A       83=A       84=A   
    85=A       86=A       87=A       88=A       89=A       90=A       91=A   
    92=A       93=A       94=A       95=A       96=A       97=A       98=A   
    99=A      100=A      101=A      102=A      103=A      104=A      105=A   
   106=A   
 ...... END OF INITIAL ORBITAL SELECTION ......
 CPU     0: STEP CPU TIME=     0.02 TOTAL CPU TIME=          0.1 (      0.0 MIN)
 TOTAL WALL CLOCK TIME=          0.2 SECONDS, CPU UTILIZATION IS    57.89%

                    ----------------------
                    AO INTEGRAL TECHNOLOGY
                    ----------------------
     S,P,L SHELL ROTATED AXIS INTEGRALS, REPROGRAMMED BY
        KAZUYA ISHIMURA (IMS) AND JOSE SIERRA (SYNSTAR).
     S,P,D,L SHELL ROTATED AXIS INTEGRALS PROGRAMMED BY
        KAZUYA ISHIMURA (INSTITUTE FOR MOLECULAR SCIENCE).
     S,P,D,F,G SHELL TO TOTAL QUARTET ANGULAR MOMENTUM SUM 5,
        ERIC PROGRAM BY GRAHAM FLETCHER (ELORET AND NASA ADVANCED
        SUPERCOMPUTING DIVISION, AMES RESEARCH CENTER).
     S,P,D,F,G,L SHELL GENERAL RYS QUADRATURE PROGRAMMED BY
        MICHEL DUPUIS (PACIFIC NORTHWEST NATIONAL LABORATORY).

          --------------------
          2 ELECTRON INTEGRALS
          --------------------

 THE -PK- OPTION IS OFF, THE INTEGRALS ARE NOT IN SUPERMATRIX FORM.
 STORING   15000 INTEGRALS/RECORD ON DISK, USING 12 BYTES/INTEGRAL.
 TWO ELECTRON INTEGRAL EVALUATION REQUIRES   91216 WORDS OF MEMORY.
 SCHWARZ INEQUALITY OVERHEAD:      5667 INTEGRALS, T=        0.00
 II,JST,KST,LST =  1  1  1  1 NREC =         1 INTLOC =    1
 II,JST,KST,LST =  2  1  1  1 NREC =         1 INTLOC =    1
 II,JST,KST,LST =  3  1  1  1 NREC =         1 INTLOC =    1
 II,JST,KST,LST =  4  1  1  1 NREC =         1 INTLOC =    1
 II,JST,KST,LST =  5  1  1  1 NREC =         1 INTLOC =    1
 II,JST,KST,LST =  6  1  1  1 NREC =         1 INTLOC =    1
 II,JST,KST,LST =  7  1  1  1 NREC =         1 INTLOC =    1
 II,JST,KST,LST =  8  1  1  1 NREC =         1 INTLOC =    1
 II,JST,KST,LST =  9  1  1  1 NREC =         1 INTLOC =    1
 II,JST,KST,LST = 10  1  1  1 NREC =         1 INTLOC =    1
 II,JST,KST,LST = 11  1  1  1 NREC =         1 INTLOC =    1
 II,JST,KST,LST = 12  1  1  1 NREC =         2 INTLOC =11436
 II,JST,KST,LST = 13  1  1  1 NREC =         2 INTLOC =11436
 II,JST,KST,LST = 14  1  1  1 NREC =         2 INTLOC =11436
 II,JST,KST,LST = 15  1  1  1 NREC =         2 INTLOC =11436
 II,JST,KST,LST = 16  1  1  1 NREC =         2 INTLOC =11436
 II,JST,KST,LST = 17  1  1  1 NREC =         9 INTLOC = 3046
 II,JST,KST,LST = 18  1  1  1 NREC =         9 INTLOC = 3046
 II,JST,KST,LST = 19  1  1  1 NREC =         9 INTLOC = 3046
 II,JST,KST,LST = 20  1  1  1 NREC =        11 INTLOC = 5928
 II,JST,KST,LST = 21  1  1  1 NREC =        24 INTLOC = 1249
 II,JST,KST,LST = 22  1  1  1 NREC =        24 INTLOC = 1249
 II,JST,KST,LST = 23  1  1  1 NREC =        28 INTLOC =10646
 II,JST,KST,LST = 24  1  1  1 NREC =        28 INTLOC =10646
 II,JST,KST,LST = 25  1  1  1 NREC =        37 INTLOC =10600
 II,JST,KST,LST = 26  1  1  1 NREC =        40 INTLOC = 6665
 II,JST,KST,LST = 27  1  1  1 NREC =        44 INTLOC =11249
 II,JST,KST,LST = 28  1  1  1 NREC =        49 INTLOC = 5208
 II,JST,KST,LST = 29  1  1  1 NREC =        49 INTLOC = 5208
 II,JST,KST,LST = 30  1  1  1 NREC =        50 INTLOC = 2939
 II,JST,KST,LST = 31  1  1  1 NREC =        53 INTLOC = 6599
 II,JST,KST,LST = 32  1  1  1 NREC =        55 INTLOC = 7899
 II,JST,KST,LST = 33  1  1  1 NREC =        57 INTLOC =13490
 II,JST,KST,LST = 34  1  1  1 NREC =        58 INTLOC =10095
 II,JST,KST,LST = 35  1  1  1 NREC =        62 INTLOC = 5298
 II,JST,KST,LST = 36  1  1  1 NREC =        64 INTLOC = 5350
 II,JST,KST,LST = 37  1  1  1 NREC =        65 INTLOC =11664
 II,JST,KST,LST = 38  1  1  1 NREC =        67 INTLOC = 1041
 II,JST,KST,LST = 39  1  1  1 NREC =        71 INTLOC = 2484
 II,JST,KST,LST = 40  1  1  1 NREC =        73 INTLOC = 2373
 SCHWARZ INEQUALITY TEST SKIPPED       65779 INTEGRAL BLOCKS.
 TOTAL NUMBER OF NONZERO TWO-ELECTRON INTEGRALS =            13983854
        938 INTEGRAL RECORDS WERE STORED ON DISK FILE  8.
  ...... END OF TWO-ELECTRON INTEGRALS .....
 CPU     0: STEP CPU TIME=     0.16 TOTAL CPU TIME=          0.3 (      0.0 MIN)
 TOTAL WALL CLOCK TIME=          0.4 SECONDS, CPU UTILIZATION IS    75.00%

 ================================================================================

          Performing a 3SI-2SA-REKS(2,2) calculation for the S0 state

          Weights: WPPS =    0.950000, WOSS =    0.050000

          Applying 0.700 orbital eigenvalue shift, not using DIIS

 ================================================================================

          -------------------
          SA-REKS(2,2)-BHHLYP
          -------------------

     NUCLEAR ENERGY =       208.3466378682
     MAXIT =500     NPUNCH=  2     MULT=  1
     EXTRAP=F  DAMP=F  SHIFT=F  RSTRCT=F  DIIS=F  SOSCF=F
         DENSITY MATRIX CONVERGENCE THRESHOLD=  1.00E-06
            FOCK MATRIX CONVERGENCE THRESHOLD=  1.00E-06
     COARSE -> FINE DFT GRID SWITCH THRESHOLD=  3.00E-04 (SWITCH IN $DFT)
                   HF -> DFT SWITCH THRESHOLD=  0.00E+00 (SWOFF IN $DFT)
     MEMORY REQUIRED FOR REKS ITERS=    610161 WORDS.

     EXCHANGE FUNCTIONAL   =B88&HFX   
     CORRELATION FUNCTIONAL=LYP88     
     DFT THRESHOLD         =.736E-08
 FOR AN EULER-MACLAURIN QUADRATURE USING  50 RADIAL POINTS:
 SMALLEST GAUSSIAN PRIMITIVE EXPONENT=        0.1612777588 OF TYPE -S-
 ON ATOM NUMBER   7 HAS RADIAL NORMALIZATION=  1.000000
  LARGEST GAUSSIAN PRIMITIVE EXPONENT=     3047.5248800000 OF TYPE -S-
 ON ATOM NUMBER   1 HAS RADIAL NORMALIZATION=  1.000000
 ====================================================================================================================

 ITER EX     NR/2           TOTAL ENERGY    OFFDIAG FOCK      E CHANGE    DENSITY CHANGE  DIIS ERROR     VIR. SHIFT

 ====================================================================================================================
   1  0   0.659831166     -233.1530334079   0.000017699  -233.1530334079   0.000005779   0.000000000     0.700000000
   2  1   0.659830709     -233.1530334141   0.000012469    -0.0000000061   0.000002857   0.000000000     0.700000000
   3  2   0.659830492     -233.1530334166   0.000008700    -0.0000000025   0.000001700   0.000000000     0.700000000
   4  3   0.659830376     -233.1530334178   0.000006047    -0.0000000012   0.000001210   0.000000000     0.700000000
   5  4   0.659830306     -233.1530334184   0.000004197    -0.0000000006   0.000001142   0.000000000     0.700000000
   6  5   0.659830262     -233.1530334187   0.000002912    -0.0000000003   0.000001004   0.000000000     0.700000000
   7  6   0.659830234     -233.1530334189   0.000002177    -0.0000000002   0.000000849   0.000000000     0.700000000
   8  7   0.659830216     -233.1530334190   0.000001799    -0.0000000001   0.000000702   0.000000000     0.700000000

          -----------------
          DENSITY CONVERGED
          -----------------
     TIME TO FORM FOCK OPERATORS=       2.8 SECONDS (       0.4 SEC/ITER)
     TIME TO SOLVE SCF EQUATIONS=       0.0 SECONDS (       0.0 SEC/ITER)

 FINAL SA-REKS(2,2)-BHHLYP ENERGY IS     -233.1530334190 AFTER   8 ITERATIONS
 SA-REKS(2,2)-BHHLYP:  FON( 22)=1.31966043 FON( 23)=0.68033957

 ====================================================================================================================

 SSR: final printout

 ==============================================================

 Triplet:...............................     -233.155610114090
 Doubly excited singlet (DES):..........     -233.023328255657
 Open Shell Singlet (OSS):..............     -233.027812310101
 Perfectly Paired Singlet (PPS):........     -233.159624003681

 Lagrangian Wrs:........................       -0.000000612927
 ==================================================================================
 3SI-2SA-REKS(2,2)-BHHLYP states:
                       E_k               C_{PPS}         C_{OSS}         C_{DES}
 ----------------------------------------------------------------------------------
 SSR state 0     -233.159624003681     -1.00000000     -0.00000151     -0.00000000
 SSR state 1     -233.027812310428      0.00000151     -0.99999996     -0.00026977
 SSR state 2     -233.023328255331      0.00000000     -0.00026977      0.99999996
 ----------------------------------------------------------------------------------

 SSR: the ground state is reported
 SSR: unrelaxed occupation numbers:  FON( 22)=1.31966043 FON( 23)=0.68033957

 SSR: final energy =     -233.159624003681

 SSR: transition dipole between the S1 and S0 states
        Dipole = ( -0.00006261, -0.00000176,  2.15767869); |D| =  2.15767869 Debye

 SSR: transition dipole between the S2 and S0 states
        Dipole = ( -0.00000002, -0.00000000,  0.00056228); |D| =  0.00056228 Debye

 ====================================================================================================================

          ------------
          EIGENVECTORS
          ------------

                      1          2          3          4          5
                  -10.6019   -10.6015   -10.5890   -10.5890   -10.5889
                     A          A          A          A          A   
    1  C  1  S    0.701896   0.702140   0.000029  -0.000713   0.034548
    2  C  1  S    0.029319   0.028747  -0.000003  -0.000034   0.001427
    3  C  1  X    0.000000   0.000000  -0.000022   0.000294   0.000003
    4  C  1  Y    0.000000   0.000000  -0.000021  -0.000294  -0.000003
    5  C  1  Z   -0.000162  -0.000167   0.000001  -0.000004   0.000212
    6  C  1  S   -0.011828  -0.011217   0.000005   0.000077  -0.003308
    7  C  1  X    0.000000  -0.000000  -0.000079  -0.001981  -0.000019
    8  C  1  Y   -0.000000   0.000000  -0.000083   0.001980   0.000020
    9  C  1  Z   -0.001017   0.001278  -0.000018   0.000030  -0.002321
   10  C  1 XX   -0.004263  -0.004289  -0.000001  -0.000001  -0.000015
   11  C  1 YY   -0.004263  -0.004289  -0.000001  -0.000001  -0.000015
   12  C  1 ZZ   -0.004546  -0.003969   0.000002  -0.000003   0.000205
   13  C  1 XY   -0.000291  -0.000362   0.000001   0.000004  -0.000144
   14  C  1 XZ    0.000000   0.000000  -0.000025   0.000060   0.000001
   15  C  1 YZ   -0.000000  -0.000000  -0.000025  -0.000060  -0.000000
   16  C  2  S    0.702196  -0.701840  -0.000709   0.000028  -0.037340
   17  C  2  S    0.029331  -0.028735  -0.000034  -0.000003  -0.001578
   18  C  2  X   -0.000000   0.000000  -0.000294   0.000021   0.000003
   19  C  2  Y    0.000000  -0.000000  -0.000294  -0.000022   0.000003
   20  C  2  Z    0.000162  -0.000167   0.000004  -0.000001   0.000222
   21  C  2  S   -0.011831   0.011212   0.000077   0.000005   0.003645
   22  C  2  X   -0.000000  -0.000000   0.001980   0.000083  -0.000020
   23  C  2  Y   -0.000000  -0.000000   0.001980  -0.000079  -0.000022
   24  C  2  Z    0.001019   0.001278  -0.000030   0.000018  -0.002369
   25  C  2 XX   -0.004265   0.004287  -0.000001  -0.000001   0.000008
   26  C  2 YY   -0.004265   0.004287  -0.000001  -0.000001   0.000008
   27  C  2 ZZ   -0.004548   0.003967  -0.000002   0.000002  -0.000208
   28  C  2 XY    0.000291  -0.000361  -0.000004  -0.000001  -0.000165
   29  C  2 XZ    0.000000  -0.000000   0.000060  -0.000025  -0.000001
   30  C  2 YZ    0.000000  -0.000000   0.000060   0.000025  -0.000000
   31  C  3  S    0.023754   0.025174  -0.000793   0.712801  -0.468580
   32  C  3  S    0.000484   0.001015  -0.000032   0.029290  -0.019111
   33  C  3  X   -0.000142  -0.000134  -0.000017   0.000070  -0.000041
   34  C  3  Y    0.000142   0.000134  -0.000017  -0.000070   0.000042
   35  C  3  Z    0.000261  -0.000015   0.000001  -0.000002   0.000087
   36  C  3  S    0.004053   0.002213   0.000013  -0.009339   0.006191
   37  C  3  X    0.001155   0.000356   0.000030  -0.000628   0.000499
   38  C  3  Y   -0.001155  -0.000356   0.000021   0.000628  -0.000499
   39  C  3  Z   -0.001768   0.000204   0.000002   0.000387  -0.000064
   40  C  3 XX   -0.000389  -0.000326   0.000007  -0.004725   0.003082
   41  C  3 YY   -0.000389  -0.000326   0.000004  -0.004725   0.003082
   42  C  3 ZZ   -0.000349  -0.000368   0.000004  -0.004615   0.002948
   43  C  3 XY    0.000025   0.000224  -0.000000  -0.000167   0.000180
   44  C  3 XZ    0.000058   0.000101   0.000007  -0.000034   0.000051
   45  C  3 YZ   -0.000058  -0.000101   0.000007   0.000035  -0.000051
   46  C  4  S    0.023754   0.025173   0.000488  -0.692635  -0.482476
   47  C  4  S    0.000484   0.001015   0.000020  -0.028467  -0.019682
   48  C  4  X    0.000142   0.000134  -0.000017   0.000069   0.000043
   49  C  4  Y   -0.000142  -0.000134  -0.000017  -0.000069  -0.000043
   50  C  4  Z    0.000261  -0.000015   0.000001  -0.000001   0.000087
   51  C  4  S    0.004053   0.002213  -0.000003   0.009079   0.006373
   52  C  4  X   -0.001155  -0.000356   0.000022  -0.000615  -0.000511
   53  C  4  Y    0.001155   0.000356   0.000029   0.000615   0.000511
   54  C  4  Z   -0.001768   0.000204   0.000002  -0.000379  -0.000072
   55  C  4 XX   -0.000389  -0.000326  -0.000005   0.004593   0.003174
   56  C  4 YY   -0.000389  -0.000326  -0.000001   0.004593   0.003174
   57  C  4 ZZ   -0.000349  -0.000368  -0.000004   0.004486   0.003038
   58  C  4 XY    0.000025   0.000224  -0.000001   0.000158   0.000183
   59  C  4 XZ   -0.000058  -0.000101   0.000007  -0.000032  -0.000052
   60  C  4 YZ    0.000058   0.000101   0.000007   0.000032   0.000052
   61  C  5  S    0.023764  -0.025162   0.712745   0.000510   0.508656
   62  C  5  S    0.000484  -0.001014   0.029288   0.000021   0.020746
   63  C  5  X    0.000142  -0.000134  -0.000070   0.000017  -0.000045
   64  C  5  Y    0.000142  -0.000134  -0.000070  -0.000017  -0.000045
   65  C  5  Z   -0.000261  -0.000016   0.000002  -0.000001   0.000091
   66  C  5  S    0.004055  -0.002211  -0.009338  -0.000004  -0.006696
   67  C  5  X   -0.001156   0.000355   0.000628  -0.000029   0.000508
   68  C  5  Y   -0.001156   0.000355   0.000628   0.000022   0.000509
   69  C  5  Z    0.001767   0.000205  -0.000387  -0.000002  -0.000088
   70  C  5 XX   -0.000389   0.000326  -0.004725  -0.000002  -0.003343
   71  C  5 YY   -0.000389   0.000326  -0.004725  -0.000005  -0.003343
   72  C  5 ZZ   -0.000349   0.000368  -0.004614  -0.000004  -0.003207
   73  C  5 XY   -0.000025   0.000224   0.000167   0.000001   0.000199
   74  C  5 XZ    0.000058  -0.000101  -0.000034   0.000007  -0.000056
   75  C  5 YZ    0.000058  -0.000101  -0.000034  -0.000007  -0.000057
   76  C  6  S    0.023764  -0.025162  -0.692692  -0.000780   0.523616
   77  C  6  S    0.000484  -0.001014  -0.028470  -0.000032   0.021361
   78  C  6  X   -0.000142   0.000134  -0.000069   0.000017   0.000047
   79  C  6  Y   -0.000142   0.000134  -0.000069  -0.000017   0.000046
   80  C  6  Z   -0.000261  -0.000016   0.000001  -0.000001   0.000091
   81  C  6  S    0.004055  -0.002212   0.009080   0.000013  -0.006892
   82  C  6  X    0.001156  -0.000355   0.000615  -0.000021  -0.000522
   83  C  6  Y    0.001156  -0.000355   0.000615   0.000030  -0.000522
   84  C  6  Z    0.001767   0.000205   0.000379  -0.000002  -0.000096
   85  C  6 XX   -0.000389   0.000326   0.004593   0.000004  -0.003443
   86  C  6 YY   -0.000389   0.000326   0.004593   0.000007  -0.003443
   87  C  6 ZZ   -0.000349   0.000368   0.004486   0.000004  -0.003303
   88  C  6 XY   -0.000025   0.000224  -0.000158   0.000000   0.000202
   89  C  6 XZ   -0.000058   0.000101  -0.000032   0.000007   0.000057
   90  C  6 YZ   -0.000058   0.000101  -0.000032  -0.000007   0.000057
   91  H  7  S   -0.000014  -0.000097   0.000000  -0.000151   0.000125
   92  H  7  S    0.000508  -0.000471  -0.000002   0.001575  -0.001063
   93  H  8  S   -0.000273   0.000105  -0.000000  -0.000185   0.000095
   94  H  8  S   -0.000029  -0.000273   0.000002   0.001411  -0.000861
   95  H  9  S   -0.000014   0.000097   0.000145   0.000000  -0.000140
   96  H  9  S    0.000508   0.000471  -0.001531  -0.000002   0.001182
   97  H 10  S   -0.000273  -0.000105   0.000180  -0.000000  -0.000111
   98  H 10  S   -0.000029   0.000273  -0.001365   0.000002   0.000999
   99  H 11  S   -0.000014   0.000097  -0.000151  -0.000000  -0.000137
  100  H 11  S    0.000508   0.000471   0.001575   0.000000   0.001149
  101  H 12  S   -0.000273  -0.000105  -0.000185  -0.000001  -0.000107
  102  H 12  S   -0.000029   0.000273   0.001411   0.000005   0.000969
  103  H 13  S   -0.000014  -0.000097  -0.000000   0.000145   0.000128
  104  H 13  S    0.000508  -0.000471   0.000000  -0.001530  -0.001094
  105  H 14  S   -0.000273   0.000105  -0.000001   0.000179   0.000099
  106  H 14  S   -0.000029  -0.000273   0.000005  -0.001365  -0.000889

                      6          7          8          9         10
                  -10.5889    -0.9515    -0.8667    -0.7700    -0.7700
                     A          A          A          A          A   
    1  C  1  S   -0.035581  -0.131307   0.096367  -0.000000   0.000000
    2  C  1  S   -0.001899   0.252752  -0.193009   0.000001  -0.000001
    3  C  1  X   -0.000003   0.000001  -0.000004  -0.165362   0.006593
    4  C  1  Y    0.000003   0.000000   0.000001   0.160978   0.038388
    5  C  1  Z   -0.000142  -0.019685  -0.109379  -0.000002  -0.000004
    6  C  1  S    0.004268   0.155374  -0.116046  -0.000002  -0.000001
    7  C  1  X    0.000021  -0.000004   0.000002  -0.031157   0.008203
    8  C  1  Y   -0.000020   0.000003  -0.000004   0.028988   0.014062
    9  C  1  Z    0.000684  -0.017789  -0.016900  -0.000004   0.000001
   10  C  1 XX   -0.000085  -0.005890  -0.000009  -0.000000  -0.000000
   11  C  1 YY   -0.000085  -0.005890  -0.000008   0.000001   0.000000
   12  C  1 ZZ   -0.000047   0.005672   0.008869   0.000000   0.000000
   13  C  1 XY    0.000253  -0.008485   0.009865  -0.000000   0.000000
   14  C  1 XZ   -0.000000   0.000000  -0.000000  -0.009020  -0.004048
   15  C  1 YZ    0.000001   0.000000   0.000000   0.009632  -0.002231
   16  C  2  S   -0.032637  -0.131305  -0.096369   0.000000  -0.000000
   17  C  2  S   -0.001776   0.252744   0.193013  -0.000001   0.000001
   18  C  2  X    0.000003  -0.000001  -0.000004  -0.038388   0.160977
   19  C  2  Y    0.000003   0.000000  -0.000001   0.006594   0.165357
   20  C  2  Z    0.000124   0.019686  -0.109381   0.000003   0.000003
   21  C  2  S    0.003983   0.155391   0.116061  -0.000001  -0.000002
   22  C  2  X   -0.000020   0.000004   0.000002  -0.014065   0.028991
   23  C  2  Y   -0.000018   0.000003   0.000004   0.008204   0.031161
   24  C  2  Z   -0.000493   0.017816  -0.016906  -0.000002   0.000003
   25  C  2 XX   -0.000086  -0.005891   0.000008  -0.000000   0.000000
   26  C  2 YY   -0.000086  -0.005891   0.000008  -0.000000   0.000001
   27  C  2 ZZ   -0.000030   0.005673  -0.008869   0.000000  -0.000000
   28  C  2 XY   -0.000240   0.008485   0.009866  -0.000000   0.000000
   29  C  2 XZ   -0.000000   0.000000   0.000000  -0.002231  -0.009632
   30  C  2 YZ   -0.000001  -0.000000   0.000000   0.004049  -0.009020
   31  C  3  S    0.508872  -0.069252   0.089427  -0.142874  -0.013918
   32  C  3  S    0.020762   0.133045  -0.171909   0.280262   0.027302
   33  C  3  X    0.000046   0.039597  -0.042228  -0.004619   0.005267
   34  C  3  Y   -0.000046  -0.039597   0.042228   0.003515   0.006061
   35  C  3  Z   -0.000045  -0.035101   0.012696  -0.025300  -0.002465
   36  C  3  S   -0.006418   0.092862  -0.137664   0.249450   0.024300
   37  C  3  X   -0.000139   0.006325  -0.006465  -0.010983   0.000459
   38  C  3  Y    0.000139  -0.006324   0.006465   0.010687   0.002571
   39  C  3  Z    0.000295   0.005154   0.000082  -0.005375  -0.000524
   40  C  3 XX   -0.003325  -0.000246   0.000933  -0.005103   0.000001
   41  C  3 YY   -0.003325  -0.000246   0.000933  -0.005006  -0.000986
   42  C  3 ZZ   -0.003278   0.001995  -0.001891   0.008341   0.000813
   43  C  3 XY   -0.000244  -0.007797   0.009541  -0.009699  -0.000945
   44  C  3 XZ   -0.000067  -0.002960   0.001622   0.001204  -0.000474
   45  C  3 YZ    0.000066   0.002960  -0.001622  -0.001089  -0.000697
   46  C  4  S    0.523526  -0.069254   0.089431   0.142871   0.013921
   47  C  4  S    0.021364   0.133046  -0.171916  -0.280256  -0.027308
   48  C  4  X   -0.000047  -0.039598   0.042230  -0.004618   0.005268
   49  C  4  Y    0.000047   0.039597  -0.042229   0.003515   0.006060
   50  C  4  Z   -0.000045  -0.035102   0.012699   0.025301   0.002464
   51  C  4  S   -0.006610   0.092871  -0.137677  -0.249439  -0.024306
   52  C  4  X    0.000151  -0.006326   0.006466  -0.010985   0.000460
   53  C  4  Y   -0.000152   0.006326  -0.006466   0.010690   0.002571
   54  C  4  Z    0.000303   0.005151   0.000086   0.005375   0.000523
   55  C  4 XX   -0.003422  -0.000246   0.000933   0.005102  -0.000001
   56  C  4 YY   -0.003422  -0.000247   0.000934   0.005007   0.000986
   57  C  4 ZZ   -0.003372   0.001995  -0.001891  -0.008341  -0.000813
   58  C  4 XY   -0.000248  -0.007797   0.009541   0.009699   0.000945
   59  C  4 XZ    0.000067   0.002961  -0.001622   0.001203  -0.000474
   60  C  4 YZ   -0.000067  -0.002960   0.001622  -0.001090  -0.000697
   61  C  5  S    0.468901  -0.069250  -0.089429   0.013921  -0.142874
   62  C  5  S    0.019131   0.133039   0.171914  -0.027308   0.280262
   63  C  5  X   -0.000043  -0.039595  -0.042229  -0.006060   0.003517
   64  C  5  Y   -0.000042  -0.039595  -0.042228   0.005268   0.004621
   65  C  5  Z    0.000038   0.035100   0.012697  -0.002464   0.025298
   66  C  5  S   -0.005891   0.092864   0.137661  -0.024306   0.249447
   67  C  5  X    0.000098  -0.006329  -0.006463  -0.002570   0.010689
   68  C  5  Y    0.000097  -0.006329  -0.006463   0.000459   0.010984
   69  C  5  Z   -0.000289  -0.005159   0.000083  -0.000523   0.005373
   70  C  5 XX   -0.003062  -0.000246  -0.000933   0.000986  -0.005006
   71  C  5 YY   -0.003062  -0.000246  -0.000933  -0.000001  -0.005103
   72  C  5 ZZ   -0.003026   0.001995   0.001891  -0.000813   0.008341
   73  C  5 XY    0.000229   0.007797   0.009541  -0.000945   0.009699
   74  C  5 XZ   -0.000062  -0.002960  -0.001622  -0.000697   0.001090
   75  C  5 YZ   -0.000062  -0.002960  -0.001622   0.000474   0.001204
   76  C  6  S    0.482294  -0.069251  -0.089433  -0.013918   0.142872
   77  C  6  S    0.019682   0.133041   0.171921   0.027302  -0.280257
   78  C  6  X    0.000043   0.039596   0.042230  -0.006061   0.003517
   79  C  6  Y    0.000044   0.039595   0.042229   0.005267   0.004621
   80  C  6  Z    0.000038   0.035102   0.012700   0.002466  -0.025298
   81  C  6  S   -0.006067   0.092873   0.137674   0.024298  -0.249437
   82  C  6  X   -0.000109   0.006330   0.006464  -0.002571   0.010691
   83  C  6  Y   -0.000110   0.006330   0.006464   0.000458   0.010986
   84  C  6  Z   -0.000296  -0.005156   0.000087   0.000524  -0.005373
   85  C  6 XX   -0.003151  -0.000246  -0.000933  -0.000986   0.005006
   86  C  6 YY   -0.003151  -0.000247  -0.000934   0.000001   0.005103
   87  C  6 ZZ   -0.003113   0.001995   0.001891   0.000813  -0.008341
   88  C  6 XY    0.000232   0.007796   0.009541   0.000945  -0.009699
   89  C  6 XZ    0.000063   0.002960   0.001622  -0.000697   0.001089
   90  C  6 YZ    0.000063   0.002960   0.001622   0.000474   0.001204
   91  H  7  S   -0.000150   0.028903  -0.052886   0.095613   0.009314
   92  H  7  S    0.001087  -0.001362  -0.011663   0.028732   0.002799
   93  H  8  S   -0.000150   0.032683  -0.042004   0.112220   0.010933
   94  H  8  S    0.001353   0.006807  -0.006648   0.031017   0.003021
   95  H  9  S   -0.000142   0.028902   0.052890   0.009314  -0.095612
   96  H  9  S    0.001026  -0.001364   0.011666   0.002799  -0.028732
   97  H 10  S   -0.000145   0.032682   0.042007   0.010932  -0.112219
   98  H 10  S    0.001305   0.006810   0.006647   0.003021  -0.031016
   99  H 11  S   -0.000139   0.028902   0.052888  -0.009316   0.095614
  100  H 11  S    0.000997  -0.001364   0.011665  -0.002799   0.028732
  101  H 12  S   -0.000141   0.032682   0.042005  -0.010934   0.112221
  102  H 12  S    0.001278   0.006811   0.006648  -0.003022   0.031017
  103  H 13  S   -0.000153   0.028903  -0.052888  -0.095611  -0.009317
  104  H 13  S    0.001119  -0.001361  -0.011664  -0.028732  -0.002800
  105  H 14  S   -0.000154   0.032683  -0.042006  -0.112217  -0.010934
  106  H 14  S    0.001382   0.006806  -0.006647  -0.031015  -0.003022

                     11         12         13         14         15
                   -0.6699    -0.5872    -0.5512    -0.5142    -0.5142
                     A          A          A          A          A   
    1  C  1  S    0.072527   0.079994   0.026770   0.000001   0.000000
    2  C  1  S   -0.148732  -0.165494  -0.059663  -0.000001  -0.000001
    3  C  1  X    0.000001  -0.000001  -0.000001  -0.222997  -0.043239
    4  C  1  Y    0.000001  -0.000001  -0.000001   0.202666  -0.102582
    5  C  1  Z    0.190674  -0.096480  -0.196017  -0.000000   0.000004
    6  C  1  S   -0.142782  -0.170769  -0.018900  -0.000000  -0.000002
    7  C  1  X   -0.000000   0.000003   0.000004  -0.043462  -0.037914
    8  C  1  Y    0.000001  -0.000004  -0.000003   0.031436  -0.048355
    9  C  1  Z    0.049254   0.011725  -0.043409   0.000001   0.000001
   10  C  1 XX    0.006979   0.003762   0.002756  -0.000000  -0.000000
   11  C  1 YY    0.006979   0.003763   0.002756  -0.000000  -0.000000
   12  C  1 ZZ   -0.008428   0.007225  -0.000852   0.000001   0.000000
   13  C  1 XY   -0.000826   0.001608  -0.000682   0.000000   0.000000
   14  C  1 XZ   -0.000000   0.000000  -0.000000   0.001700   0.005174
   15  C  1 YZ    0.000000  -0.000000  -0.000000  -0.000220   0.005442
   16  C  2  S    0.072529  -0.079993   0.026771  -0.000000  -0.000001
   17  C  2  S   -0.148735   0.165491  -0.059665   0.000001   0.000001
   18  C  2  X   -0.000001  -0.000001   0.000001  -0.102580  -0.202668
   19  C  2  Y    0.000001   0.000000  -0.000001   0.043238  -0.222995
   20  C  2  Z   -0.190672  -0.096478   0.196018   0.000004  -0.000002
   21  C  2  S   -0.142797   0.170779  -0.018904   0.000002   0.000000
   22  C  2  X    0.000000   0.000003  -0.000004  -0.048358  -0.031444
   23  C  2  Y    0.000001   0.000004  -0.000003   0.037913  -0.043471
   24  C  2  Z   -0.049251   0.011721   0.043396  -0.000000   0.000001
   25  C  2 XX    0.006980  -0.003763   0.002756   0.000000   0.000000
   26  C  2 YY    0.006980  -0.003763   0.002756   0.000000   0.000000
   27  C  2 ZZ   -0.008427  -0.007225  -0.000852  -0.000000  -0.000001
   28  C  2 XY    0.000826   0.001608   0.000682   0.000000   0.000000
   29  C  2 XZ   -0.000000  -0.000000  -0.000000  -0.005442  -0.000220
   30  C  2 YZ   -0.000000  -0.000000   0.000000   0.005174  -0.001700
   31  C  3  S   -0.065317  -0.037978  -0.014287   0.010864  -0.001514
   32  C  3  S    0.128858   0.077196   0.027233  -0.022547   0.003143
   33  C  3  X   -0.037142  -0.136276  -0.139578   0.090316  -0.041435
   34  C  3  Y    0.037144   0.136277   0.139576  -0.098211  -0.015157
   35  C  3  Z    0.097410   0.054698  -0.080451  -0.280350   0.039091
   36  C  3  S    0.136353   0.082291   0.032732  -0.015258   0.002127
   37  C  3  X   -0.008186  -0.051983  -0.058878   0.036134  -0.018951
   38  C  3  Y    0.008187   0.051984   0.058876  -0.039942  -0.008348
   39  C  3  Z    0.031170   0.009037  -0.043524  -0.130339   0.018174
   40  C  3 XX   -0.002877  -0.003490  -0.000404   0.003149  -0.002988
   41  C  3 YY   -0.002877  -0.003490  -0.000404   0.003846   0.002012
   42  C  3 ZZ    0.005414   0.009377   0.002713  -0.014126   0.001969
   43  C  3 XY   -0.003583   0.000056  -0.000888  -0.003104   0.000433
   44  C  3 XZ    0.005184   0.007481   0.005975  -0.004153   0.002225
   45  C  3 YZ   -0.005183  -0.007481  -0.005975   0.004603   0.001005
   46  C  4  S   -0.065317  -0.037979  -0.014287  -0.010863   0.001514
   47  C  4  S    0.128856   0.077199   0.027235   0.022545  -0.003143
   48  C  4  X    0.037142   0.136281   0.139582   0.090312  -0.041440
   49  C  4  Y   -0.037139  -0.136277  -0.139580  -0.098194  -0.015156
   50  C  4  Z    0.097411   0.054706  -0.080444   0.280372  -0.039081
   51  C  4  S    0.136353   0.082287   0.032725   0.015257  -0.002126
   52  C  4  X    0.008186   0.051987   0.058880   0.036132  -0.018954
   53  C  4  Y   -0.008185  -0.051985  -0.058879  -0.039934  -0.008347
   54  C  4  Z    0.031169   0.009043  -0.043519   0.130347  -0.018169
   55  C  4 XX   -0.002877  -0.003490  -0.000404  -0.003150   0.002988
   56  C  4 YY   -0.002877  -0.003490  -0.000404  -0.003846  -0.002013
   57  C  4 ZZ    0.005413   0.009378   0.002713   0.014126  -0.001969
   58  C  4 XY   -0.003583   0.000056  -0.000888   0.003105  -0.000433
   59  C  4 XZ   -0.005183  -0.007481  -0.005976  -0.004153   0.002225
   60  C  4 YZ    0.005184   0.007481   0.005975   0.004603   0.001004
   61  C  5  S   -0.065317   0.037977  -0.014287  -0.001515  -0.010863
   62  C  5  S    0.128857  -0.077194   0.027235   0.003144   0.022545
   63  C  5  X    0.037142  -0.136273   0.139581  -0.015152   0.098201
   64  C  5  Y    0.037143  -0.136273   0.139580   0.041439   0.090316
   65  C  5  Z   -0.097410   0.054701   0.080444  -0.039079  -0.280352
   66  C  5  S    0.136356  -0.082295   0.032728   0.002129   0.015264
   67  C  5  X    0.008184  -0.051980   0.058882  -0.008345   0.039936
   68  C  5  Y    0.008185  -0.051980   0.058881   0.018953   0.036133
   69  C  5  Z   -0.031170   0.009038   0.043523  -0.018167  -0.130338
   70  C  5 XX   -0.002877   0.003490  -0.000404   0.002012  -0.003846
   71  C  5 YY   -0.002877   0.003490  -0.000404  -0.002987  -0.003149
   72  C  5 ZZ    0.005414  -0.009377   0.002713   0.001969   0.014125
   73  C  5 XY    0.003583   0.000056   0.000888  -0.000433  -0.003104
   74  C  5 XZ    0.005184  -0.007481   0.005975  -0.001004   0.004604
   75  C  5 YZ    0.005184  -0.007480   0.005975   0.002225   0.004153
   76  C  6  S   -0.065316   0.037979  -0.014288   0.001514   0.010862
   77  C  6  S    0.128855  -0.077197   0.027237  -0.003143  -0.022543
   78  C  6  X   -0.037142   0.136277  -0.139586  -0.015158   0.098197
   79  C  6  Y   -0.037139   0.136273  -0.139584   0.041434   0.090299
   80  C  6  Z   -0.097411   0.054710   0.080436   0.039093   0.280374
   81  C  6  S    0.136356  -0.082292   0.032722  -0.002129  -0.015261
   82  C  6  X   -0.008184   0.051983  -0.058885  -0.008349   0.039935
   83  C  6  Y   -0.008183   0.051982  -0.058884   0.018949   0.036125
   84  C  6  Z   -0.031169   0.009045   0.043517   0.018175   0.130345
   85  C  6 XX   -0.002877   0.003490  -0.000404  -0.002012   0.003847
   86  C  6 YY   -0.002877   0.003490  -0.000404   0.002988   0.003149
   87  C  6 ZZ    0.005413  -0.009377   0.002713  -0.001970  -0.014126
   88  C  6 XY    0.003583   0.000056   0.000888   0.000433   0.003104
   89  C  6 XZ   -0.005183   0.007481  -0.005976  -0.001004   0.004603
   90  C  6 YZ   -0.005184   0.007481  -0.005976   0.002225   0.004153
   91  H  7  S    0.102203   0.074028  -0.023194  -0.179302   0.025000
   92  H  7  S    0.049893   0.051165  -0.010638  -0.118241   0.016487
   93  H  8  S    0.054374   0.109967   0.130177   0.001457  -0.000207
   94  H  8  S    0.027644   0.060834   0.079451  -0.003240   0.000449
   95  H  9  S    0.102202  -0.074032  -0.023188  -0.025001  -0.179311
   96  H  9  S    0.049892  -0.051165  -0.010633  -0.016487  -0.118250
   97  H 10  S    0.054374  -0.109966   0.130179   0.000208   0.001469
   98  H 10  S    0.027645  -0.060835   0.079452  -0.000449  -0.003229
   99  H 11  S    0.102203  -0.074027  -0.023191   0.024994   0.179301
  100  H 11  S    0.049892  -0.051163  -0.010634   0.016482   0.118242
  101  H 12  S    0.054375  -0.109964   0.130178  -0.000200  -0.001458
  102  H 12  S    0.027646  -0.060833   0.079450   0.000453   0.003238
  103  H 13  S    0.102203   0.074032  -0.023191   0.179313  -0.024995
  104  H 13  S    0.049893   0.051166  -0.010635   0.118249  -0.016483
  105  H 14  S    0.054373   0.109969   0.130178  -0.001469   0.000202
  106  H 14  S    0.027644   0.060836   0.079453   0.003231  -0.000452

                     16         17         18         19         20
                   -0.4947    -0.4459    -0.4459    -0.3972    -0.3436
                     A          A          A          A          A   
    1  C  1  S    0.031032   0.000000  -0.000000  -0.015277  -0.000000
    2  C  1  S   -0.068640  -0.000002   0.000000   0.033584   0.000000
    3  C  1  X    0.000010   0.171597  -0.011714  -0.000001   0.275196
    4  C  1  Y   -0.000001  -0.170591  -0.021925  -0.000014   0.239073
    5  C  1  Z    0.010842   0.000010   0.000009  -0.328269  -0.000009
    6  C  1  S   -0.068919   0.000002   0.000005   0.084953   0.000001
    7  C  1  X    0.000002   0.033721  -0.009595   0.000002   0.170109
    8  C  1  Y    0.000003  -0.033089  -0.011589  -0.000009   0.156948
    9  C  1  Z    0.002950   0.000012  -0.000003  -0.121277  -0.000006
   10  C  1 XX   -0.005042   0.000000   0.000000  -0.009588   0.000001
   11  C  1 YY   -0.005042  -0.000000   0.000000  -0.009588  -0.000001
   12  C  1 ZZ    0.013986  -0.000000  -0.000001   0.020928  -0.000000
   13  C  1 XY    0.009568   0.000000  -0.000000   0.007513   0.000000
   14  C  1 XZ   -0.000000   0.012712   0.003474   0.000000   0.013261
   15  C  1 YZ    0.000000  -0.012896   0.002710   0.000000   0.006768
   16  C  2  S   -0.031033  -0.000000   0.000000  -0.015279   0.000000
   17  C  2  S    0.068640   0.000000  -0.000002   0.033586  -0.000000
   18  C  2  X    0.000010   0.021921  -0.170592   0.000000  -0.136603
   19  C  2  Y    0.000002  -0.011711  -0.171594  -0.000014   0.009021
   20  C  2  Z    0.010840  -0.000008  -0.000011   0.328271   0.000006
   21  C  2  S    0.068940   0.000005   0.000001   0.084972  -0.000001
   22  C  2  X    0.000003   0.011589  -0.033096  -0.000002  -0.069546
   23  C  2  Y   -0.000002  -0.009595  -0.033728  -0.000008   0.023066
   24  C  2  Z    0.002942   0.000002  -0.000014   0.121231   0.000002
   25  C  2 XX    0.005042   0.000000  -0.000000  -0.009588   0.000000
   26  C  2 YY    0.005041   0.000000  -0.000000  -0.009587  -0.000001
   27  C  2 ZZ   -0.013987  -0.000001  -0.000000   0.020926   0.000000
   28  C  2 XY    0.009568   0.000000  -0.000000  -0.007513  -0.000000
   29  C  2 XZ    0.000000   0.002710   0.012896   0.000000   0.014301
   30  C  2 YZ    0.000000  -0.003474   0.012711  -0.000000   0.008629
   31  C  3  S    0.005496   0.017220   0.000513   0.016925   0.005127
   32  C  3  S   -0.012480  -0.037104  -0.001106  -0.035725  -0.011967
   33  C  3  X    0.042658  -0.217158  -0.010064  -0.034402   0.174702
   34  C  3  Y   -0.042650   0.217369   0.002902   0.034400   0.194636
   35  C  3  Z    0.217833  -0.134144  -0.004011   0.178207   0.023062
   36  C  3  S   -0.015895  -0.063671  -0.001897  -0.060320  -0.018267
   37  C  3  X    0.024067  -0.091965  -0.001388  -0.018180   0.134169
   38  C  3  Y   -0.024063   0.091884   0.004096   0.018178   0.137214
   39  C  3  Z    0.092182  -0.049163  -0.001469   0.073332   0.006896
   40  C  3 XX   -0.004741   0.007816  -0.000121  -0.006874   0.012449
   41  C  3 YY   -0.004741   0.007794   0.000587  -0.006874  -0.013102
   42  C  3 ZZ    0.011141  -0.008032  -0.000240   0.018031   0.001598
   43  C  3 XY    0.005966  -0.008136  -0.000243   0.008366   0.000529
   44  C  3 XZ   -0.003105   0.013377   0.000508  -0.004237  -0.004518
   45  C  3 YZ    0.003105  -0.013383  -0.000291   0.004238  -0.004694
   46  C  4  S    0.005496  -0.017220  -0.000514   0.016924  -0.005126
   47  C  4  S   -0.012481   0.037106   0.001108  -0.035723   0.011966
   48  C  4  X   -0.042654  -0.217160  -0.010065   0.034387   0.174712
   49  C  4  Y    0.042662   0.217372   0.002902  -0.034387   0.194647
   50  C  4  Z    0.217810   0.134134   0.003994   0.178213  -0.023066
   51  C  4  S   -0.015893   0.063659   0.001902  -0.060322   0.018264
   52  C  4  X   -0.024065  -0.091961  -0.001390   0.018172   0.134178
   53  C  4  Y    0.024069   0.091880   0.004098  -0.018174   0.137224
   54  C  4  Z    0.092169   0.049156   0.001465   0.073337  -0.006899
   55  C  4 XX   -0.004741  -0.007815   0.000122  -0.006874  -0.012449
   56  C  4 YY   -0.004740  -0.007794  -0.000587  -0.006874   0.013102
   57  C  4 ZZ    0.011140   0.008032   0.000239   0.018032  -0.001597
   58  C  4 XY    0.005966   0.008137   0.000243   0.008367  -0.000529
   59  C  4 XZ    0.003105   0.013377   0.000508   0.004238  -0.004518
   60  C  4 YZ   -0.003105  -0.013383  -0.000291  -0.004237  -0.004695
   61  C  5  S   -0.005496  -0.000514   0.017220   0.016925   0.018105
   62  C  5  S    0.012481   0.001108  -0.037105  -0.035722  -0.042261
   63  C  5  X    0.042662  -0.002905   0.217372   0.034401  -0.017092
   64  C  5  Y    0.042654  -0.010062   0.217156   0.034399   0.087491
   65  C  5  Z    0.217837  -0.003995   0.134140  -0.178205  -0.081452
   66  C  5  S    0.015886   0.001901  -0.063667  -0.060347  -0.064511
   67  C  5  X    0.024072  -0.004099   0.091884   0.018193  -0.033044
   68  C  5  Y    0.024068  -0.001388   0.091964   0.018191   0.043802
   69  C  5  Z    0.092182  -0.001464   0.049164  -0.073326  -0.024359
   70  C  5 XX    0.004741  -0.000587   0.007795  -0.006874   0.002464
   71  C  5 YY    0.004741   0.000121   0.007816  -0.006873  -0.004771
   72  C  5 ZZ   -0.011141   0.000239  -0.008033   0.018032   0.005643
   73  C  5 XY    0.005966  -0.000242   0.008137  -0.008367  -0.001869
   74  C  5 XZ    0.003105  -0.000291   0.013383  -0.004236  -0.000992
   75  C  5 YZ    0.003105  -0.000507   0.013377  -0.004237   0.001616
   76  C  6  S   -0.005496   0.000514  -0.017221   0.016924  -0.018103
   77  C  6  S    0.012483  -0.001107   0.037107  -0.035720   0.042258
   78  C  6  X   -0.042659  -0.002904   0.217375  -0.034385  -0.017096
   79  C  6  Y   -0.042666  -0.010062   0.217160  -0.034386   0.087492
   80  C  6  Z    0.217812   0.004010  -0.134129  -0.178211   0.081447
   81  C  6  S    0.015885  -0.001898   0.063655  -0.060348   0.064504
   82  C  6  X   -0.024071  -0.004098   0.091879  -0.018184  -0.033048
   83  C  6  Y   -0.024075  -0.001386   0.091960  -0.018186   0.043804
   84  C  6  Z    0.092170   0.001470  -0.049156  -0.073331   0.024357
   85  C  6 XX    0.004741   0.000587  -0.007795  -0.006874  -0.002464
   86  C  6 YY    0.004741  -0.000121  -0.007816  -0.006874   0.004771
   87  C  6 ZZ   -0.011140  -0.000240   0.008034   0.018033  -0.005642
   88  C  6 XY    0.005966   0.000243  -0.008137  -0.008368   0.001868
   89  C  6 XZ   -0.003105  -0.000291   0.013383   0.004237  -0.000992
   90  C  6 YZ   -0.003105  -0.000508   0.013376   0.004237   0.001617
   91  H  7  S    0.130109  -0.097545  -0.002916   0.123243   0.011862
   92  H  7  S    0.105569  -0.079669  -0.002383   0.138150   0.016394
   93  H  8  S   -0.103812   0.206723   0.006172  -0.063433  -0.003876
   94  H  8  S   -0.071004   0.185678   0.005544  -0.065178   0.005847
   95  H  9  S   -0.130096  -0.002916   0.097544   0.123246  -0.041880
   96  H  9  S   -0.105560  -0.002382   0.079670   0.138157  -0.057884
   97  H 10  S    0.103809   0.006171  -0.206721  -0.063442   0.013681
   98  H 10  S    0.071002   0.005544  -0.185680  -0.065191  -0.020655
   99  H 11  S   -0.130112   0.002906  -0.097548   0.123241   0.041886
  100  H 11  S   -0.105571   0.002373  -0.079671   0.138154   0.057891
  101  H 12  S    0.103814  -0.006166   0.206723  -0.063430  -0.013685
  102  H 12  S    0.071006  -0.005538   0.185678  -0.065181   0.020651
  103  H 13  S    0.130094   0.097542   0.002905   0.123247  -0.011859
  104  H 13  S    0.105561   0.079669   0.002371   0.138153  -0.016391
  105  H 14  S   -0.103807  -0.206722  -0.006165  -0.063444   0.003875
  106  H 14  S   -0.071001  -0.185679  -0.005537  -0.065187  -0.005849

                     21         22         23         24         25
                   -0.3436    -0.2217    -0.2289     0.1158     0.1158
                     A          A          A          A          A   
    1  C  1  S    0.000000  -0.000000  -0.000000  -0.000001   0.000001
    2  C  1  S   -0.000000  -0.000000  -0.000000   0.000001  -0.000002
    3  C  1  X   -0.009023   0.000001   0.000002   0.089295   0.303566
    4  C  1  Y   -0.136599   0.000000   0.000001   0.115108   0.294751
    5  C  1  Z   -0.000002   0.000000  -0.000000  -0.000004  -0.000004
    6  C  1  S   -0.000001   0.000002   0.000003   0.000017  -0.000000
    7  C  1  X   -0.023062   0.000002   0.000003   0.089795   0.498894
    8  C  1  Y   -0.069549  -0.000003   0.000001   0.234222   0.449568
    9  C  1  Z    0.000001   0.000001   0.000000   0.000004  -0.000013
   10  C  1 XX   -0.000000  -0.023941   0.020810   0.000000  -0.000001
   11  C  1 YY   -0.000000   0.023941  -0.020810  -0.000000   0.000000
   12  C  1 ZZ    0.000000  -0.000000  -0.000000  -0.000000   0.000001
   13  C  1 XY    0.000000  -0.000000   0.000000  -0.000000  -0.000001
   14  C  1 XZ    0.008629   0.000000  -0.000000   0.018902  -0.019988
   15  C  1 YZ   -0.014300  -0.000000   0.000000  -0.027180  -0.004245
   16  C  2  S   -0.000000  -0.000000   0.000000   0.000000  -0.000001
   17  C  2  S    0.000000  -0.000000   0.000000  -0.000000   0.000002
   18  C  2  X   -0.239069  -0.000001   0.000002  -0.294748   0.115109
   19  C  2  Y    0.275199   0.000000  -0.000001   0.303570  -0.089296
   20  C  2  Z    0.000006  -0.000000  -0.000000   0.000005   0.000001
   21  C  2  S    0.000002   0.000002  -0.000003   0.000010   0.000017
   22  C  2  X   -0.156949  -0.000001   0.000003  -0.449536   0.234347
   23  C  2  Y    0.170112  -0.000003  -0.000002   0.498964  -0.089697
   24  C  2  Z    0.000005  -0.000000   0.000000   0.000008  -0.000013
   25  C  2 XX    0.000001  -0.023941  -0.020810  -0.000001   0.000001
   26  C  2 YY   -0.000000   0.023941   0.020810   0.000000  -0.000000
   27  C  2 ZZ   -0.000000  -0.000000   0.000000   0.000001  -0.000000
   28  C  2 XY   -0.000000   0.000000   0.000000   0.000001   0.000000
   29  C  2 XZ    0.006768   0.000000   0.000000  -0.004247   0.027179
   30  C  2 YZ   -0.013261   0.000000   0.000000   0.019989   0.018900
   31  C  3  S    0.018104   0.000000  -0.000000   0.034803  -0.011891
   32  C  3  S   -0.042260  -0.000001  -0.000000  -0.063820   0.021807
   33  C  3  X   -0.087488   0.201895  -0.217885  -0.092331  -0.160120
   34  C  3  Y   -0.017096   0.201896  -0.217886  -0.024940  -0.183144
   35  C  3  Z    0.081452  -0.000004   0.000005   0.018819  -0.006425
   36  C  3  S   -0.064508   0.000002   0.000001  -0.366331   0.125155
   37  C  3  X   -0.043799   0.203185  -0.199147  -0.174708  -0.335871
   38  C  3  Y   -0.033048   0.203185  -0.199146  -0.067315  -0.372555
   39  C  3  Z    0.024357  -0.000005   0.000004  -0.049967   0.017087
   40  C  3 XX   -0.004771   0.000451  -0.000701   0.004299   0.018839
   41  C  3 YY    0.002464  -0.000451   0.000701  -0.008127  -0.017532
   42  C  3 ZZ    0.005643   0.000000  -0.000000   0.011805  -0.004033
   43  C  3 XY    0.001869  -0.000000   0.000000   0.000944  -0.000323
   44  C  3 XZ    0.001616  -0.002554   0.001041  -0.006403  -0.010238
   45  C  3 YZ    0.000993  -0.002554   0.001040  -0.001200  -0.012015
   46  C  4  S   -0.018103  -0.000000  -0.000000  -0.034805   0.011889
   47  C  4  S    0.042258   0.000001   0.000001   0.063826  -0.021802
   48  C  4  X   -0.087490  -0.201883   0.217872  -0.092329  -0.160128
   49  C  4  Y   -0.017102  -0.201888   0.217876  -0.024947  -0.183151
   50  C  4  Z   -0.081444   0.000004  -0.000006  -0.018820   0.006433
   51  C  4  S    0.064502  -0.000003  -0.000000   0.366336  -0.125142
   52  C  4  X   -0.043799  -0.203173   0.199135  -0.174687  -0.335885
   53  C  4  Y   -0.033052  -0.203180   0.199138  -0.067340  -0.372570
   54  C  4  Z   -0.024353   0.000006  -0.000004   0.049971  -0.017060
   55  C  4 XX    0.004771   0.000451  -0.000701  -0.004299  -0.018840
   56  C  4 YY   -0.002464  -0.000451   0.000701   0.008126   0.017531
   57  C  4 ZZ   -0.005642  -0.000000   0.000000  -0.011804   0.004033
   58  C  4 XY   -0.001868  -0.000000  -0.000000  -0.000944   0.000321
   59  C  4 XZ    0.001616   0.002554  -0.001041  -0.006402  -0.010238
   60  C  4 YZ    0.000992   0.002554  -0.001041  -0.001201  -0.012016
   61  C  5  S   -0.005126   0.000000   0.000000   0.011890   0.034806
   62  C  5  S    0.011966  -0.000001   0.000000  -0.021798  -0.063816
   63  C  5  X   -0.194636  -0.201895  -0.217886   0.183144  -0.024937
   64  C  5  Y    0.174703   0.201896   0.217886  -0.160121   0.092331
   65  C  5  Z    0.023067   0.000003   0.000004  -0.006432  -0.018818
   66  C  5  S    0.018267   0.000002  -0.000001  -0.125188  -0.366465
   67  C  5  X   -0.137216  -0.203186  -0.199147   0.372571  -0.067282
   68  C  5  Y    0.134170   0.203186   0.199147  -0.335860   0.174736
   69  C  5  Z    0.006899   0.000004   0.000004   0.017037   0.049912
   70  C  5 XX    0.013102   0.000451   0.000701   0.017531  -0.008126
   71  C  5 YY   -0.012449  -0.000451  -0.000701  -0.018839   0.004299
   72  C  5 ZZ   -0.001598   0.000000   0.000000   0.004033   0.011805
   73  C  5 XY    0.000529   0.000000   0.000000  -0.000323  -0.000945
   74  C  5 XZ   -0.004695  -0.002554  -0.001040  -0.012015   0.001201
   75  C  5 YZ    0.004518   0.002554   0.001040   0.010238  -0.006402
   76  C  6  S    0.005126  -0.000000   0.000000  -0.011892  -0.034806
   77  C  6  S   -0.011967   0.000001  -0.000001   0.021805   0.063818
   78  C  6  X   -0.194645   0.201882   0.217872   0.183150  -0.024944
   79  C  6  Y    0.174716  -0.201887  -0.217876  -0.160131   0.092330
   80  C  6  Z   -0.023059  -0.000003  -0.000005   0.006427   0.018823
   81  C  6  S   -0.018266  -0.000002   0.000000   0.125200   0.366461
   82  C  6  X   -0.137223   0.203173   0.199135   0.372571  -0.067311
   83  C  6  Y    0.134180  -0.203179  -0.199138  -0.335886   0.174722
   84  C  6  Z   -0.006895  -0.000005  -0.000004  -0.017060  -0.049900
   85  C  6 XX   -0.013102   0.000451   0.000701  -0.017532   0.008126
   86  C  6 YY    0.012449  -0.000451  -0.000701   0.018838  -0.004299
   87  C  6 ZZ    0.001598  -0.000000  -0.000000  -0.004032  -0.011804
   88  C  6 XY   -0.000529   0.000000  -0.000000   0.000323   0.000944
   89  C  6 XZ   -0.004695   0.002554   0.001041  -0.012015   0.001201
   90  C  6 YZ    0.004518  -0.002554  -0.001041   0.010239  -0.006401
   91  H  7  S    0.041886   0.000000  -0.000000   0.041438  -0.014157
   92  H  7  S    0.057893   0.000000  -0.000000   0.274764  -0.093880
   93  H  8  S   -0.013688  -0.000000  -0.000000  -0.009753   0.003332
   94  H  8  S    0.020650  -0.000000  -0.000000   0.013819  -0.004726
   95  H  9  S    0.011859  -0.000001  -0.000000  -0.014156  -0.041436
   96  H  9  S    0.016391  -0.000001   0.000000  -0.093869  -0.274746
   97  H 10  S   -0.003874   0.000001  -0.000000   0.003331   0.009751
   98  H 10  S    0.005848   0.000000   0.000001  -0.004747  -0.013884
   99  H 11  S   -0.011860   0.000000   0.000000   0.014156   0.041438
  100  H 11  S   -0.016392   0.000000   0.000000   0.093853   0.274755
  101  H 12  S    0.003875  -0.000000   0.000000  -0.003331  -0.009751
  102  H 12  S   -0.005848  -0.000000   0.000001   0.004727   0.013847
  103  H 13  S   -0.041881  -0.000001   0.000000  -0.041437   0.014156
  104  H 13  S   -0.057886  -0.000001  -0.000000  -0.274767   0.093861
  105  H 14  S    0.013685   0.000001   0.000001   0.009753  -0.003332
  106  H 14  S   -0.020652   0.000000  -0.000001  -0.013858   0.004728

                     26         27         28         29         30
                    0.1702     0.1736     0.1862     0.2250     0.2250
                     A          A          A          A          A   
    1  C  1  S   -0.004579  -0.001919  -0.034043   0.000003   0.000003
    2  C  1  S    0.022000  -0.044002   0.066484  -0.000007  -0.000007
    3  C  1  X   -0.000004   0.000001   0.000003   0.050434   0.123919
    4  C  1  Y   -0.000006  -0.000001  -0.000004  -0.082744   0.105134
    5  C  1  Z   -0.023964  -0.051657  -0.185617   0.000006   0.000001
    6  C  1  S    0.281821   0.452646   0.181022  -0.000007  -0.000010
    7  C  1  X   -0.000008  -0.000002   0.000014   0.235391   0.211681
    8  C  1  Y   -0.000000  -0.000003  -0.000008  -0.284757   0.138307
    9  C  1  Z   -0.027391  -0.080783   0.339152   0.000054   0.000023
   10  C  1 XX    0.000164   0.002195   0.013676   0.000002   0.000002
   11  C  1 YY    0.000164   0.002195   0.013675   0.000002   0.000002
   12  C  1 ZZ    0.001301  -0.009586  -0.037596  -0.000002  -0.000002
   13  C  1 XY   -0.007985   0.003693  -0.013500  -0.000002  -0.000002
   14  C  1 XZ   -0.000000  -0.000000  -0.000001   0.004626   0.005177
   15  C  1 YZ    0.000001  -0.000000  -0.000000  -0.005878   0.003696
   16  C  2  S   -0.004576   0.001919   0.034050   0.000003   0.000003
   17  C  2  S    0.021982   0.044005  -0.066478  -0.000007  -0.000007
   18  C  2  X    0.000003   0.000001   0.000004  -0.105132  -0.082744
   19  C  2  Y   -0.000005   0.000001   0.000004   0.123918  -0.050434
   20  C  2  Z    0.023933  -0.051660  -0.185618  -0.000001  -0.000006
   21  C  2  S    0.281900  -0.452647  -0.181301  -0.000010  -0.000007
   22  C  2  X    0.000005  -0.000000   0.000016  -0.138329  -0.284721
   23  C  2  Y   -0.000003   0.000004   0.000011   0.211683  -0.235348
   24  C  2  Z    0.027457  -0.080767   0.339231  -0.000019  -0.000047
   25  C  2 XX    0.000161  -0.002195  -0.013674   0.000002   0.000002
   26  C  2 YY    0.000160  -0.002195  -0.013674   0.000002   0.000002
   27  C  2 ZZ    0.001307   0.009586   0.037597  -0.000002  -0.000002
   28  C  2 XY    0.007984   0.003694  -0.013503   0.000002   0.000002
   29  C  2 XZ   -0.000000   0.000000   0.000001   0.003696   0.005878
   30  C  2 YZ   -0.000001  -0.000000  -0.000000  -0.005177   0.004626
   31  C  3  S   -0.060775  -0.059473  -0.000580  -0.083218  -0.011741
   32  C  3  S    0.118378   0.064039   0.012560   0.092062   0.012993
   33  C  3  X   -0.051027  -0.067239  -0.042811  -0.142960  -0.007893
   34  C  3  Y    0.051033   0.067239   0.042806   0.139564   0.031967
   35  C  3  Z    0.060130   0.072724  -0.161776   0.037607   0.005282
   36  C  3  S    0.831194   0.901896  -0.182060   1.611418   0.227318
   37  C  3  X   -0.260732  -0.274126  -0.282846  -0.320587  -0.144989
   38  C  3  Y    0.260746   0.274132   0.282831   0.348177  -0.050609
   39  C  3  Z    0.296759   0.227655  -0.625460  -0.036196  -0.005192
   40  C  3 XX   -0.002151  -0.006922  -0.006804  -0.003516   0.007720
   41  C  3 YY   -0.002150  -0.006922  -0.006804  -0.001243  -0.008392
   42  C  3 ZZ    0.002323  -0.004400   0.010759  -0.007261  -0.001023
   43  C  3 XY   -0.001003   0.004882   0.011860  -0.004297  -0.000606
   44  C  3 XZ   -0.003688  -0.005138  -0.007637   0.002053  -0.001227
   45  C  3 YZ    0.003689   0.005138   0.007637  -0.001633  -0.001746
   46  C  4  S   -0.060774  -0.059472  -0.000577   0.083213   0.011735
   47  C  4  S    0.118374   0.064038   0.012555  -0.092049  -0.012975
   48  C  4  X    0.051036   0.067239   0.042811  -0.142953  -0.007885
   49  C  4  Y   -0.051026  -0.067239  -0.042816   0.139553   0.031957
   50  C  4  Z    0.060129   0.072724  -0.161777  -0.037658  -0.005336
   51  C  4  S    0.831195   0.901888  -0.182123  -1.611414  -0.227297
   52  C  4  X    0.260756   0.274135   0.282856  -0.320524  -0.144934
   53  C  4  Y   -0.260732  -0.274123  -0.282865   0.348108  -0.050672
   54  C  4  Z    0.296750   0.227657  -0.625463   0.036004   0.004993
   55  C  4 XX   -0.002150  -0.006922  -0.006805   0.003515  -0.007721
   56  C  4 YY   -0.002151  -0.006922  -0.006804   0.001242   0.008392
   57  C  4 ZZ    0.002324  -0.004400   0.010760   0.007263   0.001025
   58  C  4 XY   -0.001003   0.004883   0.011860   0.004299   0.000607
   59  C  4 XZ    0.003689   0.005138   0.007637   0.002052  -0.001227
   60  C  4 YZ   -0.003688  -0.005138  -0.007637  -0.001633  -0.001747
   61  C  5  S   -0.060775   0.059472   0.000587   0.011735  -0.083217
   62  C  5  S    0.118378  -0.064034  -0.012584  -0.012978   0.092064
   63  C  5  X    0.051022  -0.067239  -0.042823  -0.031961   0.139567
[...]

                  0.000000   0.000000

    1             0.000000   0.000000
    2             0.000000   0.000000
    3             0.000000   0.000000
    4             0.000000   0.000000
    5             0.000000   0.000000
    6             0.000000   0.000000
    7             0.000000   0.000000
    8             0.000000   0.000000
    9             0.000000   0.000000
   10             0.000000   0.000000
   11             0.000000   0.000000
   12             0.000000   0.000000
   13             0.000000   0.000000
   14             0.000000   0.000000

               ----- POPULATIONS IN EACH AO -----
                             MULLIKEN      LOWDIN
              1  C  1  S      1.99398     1.97733
              2  C  1  S      0.70225     0.35359
              3  C  1  X      0.66056     0.57796
              4  C  1  Y      0.66055     0.57796
              5  C  1  Z      0.73341     0.64764
              6  C  1  S      0.44646     0.27104
              7  C  1  X      0.25671     0.38315
              8  C  1  Y      0.25672     0.38316
              9  C  1  Z      0.14744     0.32197
             10  C  1 XX     -0.00457     0.14414
             11  C  1 YY     -0.00457     0.14414
             12  C  1 ZZ      0.00817     0.16689
             13  C  1 XY      0.00648     0.01361
             14  C  1 XZ      0.00993     0.01961
             15  C  1 YZ      0.00993     0.01961
             16  C  2  S      1.99398     1.97733
             17  C  2  S      0.70225     0.35359
             18  C  2  X      0.66055     0.57796
             19  C  2  Y      0.66055     0.57795
             20  C  2  Z      0.73341     0.64764
             21  C  2  S      0.44650     0.27105
             22  C  2  X      0.25672     0.38316
             23  C  2  Y      0.25673     0.38316
             24  C  2  Z      0.14741     0.32196
             25  C  2 XX     -0.00457     0.14414
             26  C  2 YY     -0.00457     0.14413
             27  C  2 ZZ      0.00817     0.16689
             28  C  2 XY      0.00648     0.01361
             29  C  2 XZ      0.00993     0.01961
             30  C  2 YZ      0.00993     0.01961
             31  C  3  S      1.99365     1.98017
             32  C  3  S      0.69336     0.37033
             33  C  3  X      0.64356     0.58861
             34  C  3  Y      0.64356     0.58861
             35  C  3  Z      0.73735     0.65261
             36  C  3  S      0.59842     0.33478
             37  C  3  X      0.37430     0.44175
             38  C  3  Y      0.37430     0.44175
             39  C  3  Z      0.30630     0.43680
             40  C  3 XX     -0.00523     0.14308
             41  C  3 YY     -0.00523     0.14308
             42  C  3 ZZ      0.02109     0.17938
             43  C  3 XY      0.00638     0.01106
             44  C  3 XZ      0.00590     0.01083
             45  C  3 YZ      0.00590     0.01083
             46  C  4  S      1.99365     1.98017
             47  C  4  S      0.69336     0.37033
             48  C  4  X      0.64356     0.58861
             49  C  4  Y      0.64356     0.58861
             50  C  4  Z      0.73735     0.65261
             51  C  4  S      0.59842     0.33478
             52  C  4  X      0.37430     0.44175
             53  C  4  Y      0.37431     0.44175
             54  C  4  Z      0.30629     0.43680
             55  C  4 XX     -0.00523     0.14308
             56  C  4 YY     -0.00523     0.14308
             57  C  4 ZZ      0.02109     0.17938
             58  C  4 XY      0.00638     0.01106
             59  C  4 XZ      0.00590     0.01083
             60  C  4 YZ      0.00590     0.01083
             61  C  5  S      1.99365     1.98017
             62  C  5  S      0.69336     0.37033
             63  C  5  X      0.64356     0.58861
             64  C  5  Y      0.64356     0.58861
             65  C  5  Z      0.73735     0.65261
             66  C  5  S      0.59842     0.33478
             67  C  5  X      0.37430     0.44175
             68  C  5  Y      0.37430     0.44175
             69  C  5  Z      0.30629     0.43680
             70  C  5 XX     -0.00523     0.14308
             71  C  5 YY     -0.00523     0.14308
             72  C  5 ZZ      0.02109     0.17938
             73  C  5 XY      0.00638     0.01106
             74  C  5 XZ      0.00590     0.01083
             75  C  5 YZ      0.00590     0.01083
             76  C  6  S      1.99365     1.98017
             77  C  6  S      0.69336     0.37033
             78  C  6  X      0.64356     0.58861
             79  C  6  Y      0.64356     0.58861
             80  C  6  Z      0.73735     0.65261
             81  C  6  S      0.59842     0.33478
             82  C  6  X      0.37430     0.44175
             83  C  6  Y      0.37431     0.44175
             84  C  6  Z      0.30629     0.43680
             85  C  6 XX     -0.00523     0.14308
             86  C  6 YY     -0.00523     0.14308
             87  C  6 ZZ      0.02109     0.17938
             88  C  6 XY      0.00638     0.01106
             89  C  6 XZ      0.00590     0.01083
             90  C  6 YZ      0.00590     0.01083
             91  H  7  S      0.52786     0.48407
             92  H  7  S      0.31046     0.35363
             93  H  8  S      0.52694     0.47979
             94  H  8  S      0.29939     0.34796
             95  H  9  S      0.52786     0.48407
             96  H  9  S      0.31046     0.35363
             97  H 10  S      0.52694     0.47979
             98  H 10  S      0.29940     0.34796
             99  H 11  S      0.52786     0.48407
            100  H 11  S      0.31046     0.35363
            101  H 12  S      0.52694     0.47979
            102  H 12  S      0.29940     0.34796
            103  H 13  S      0.52786     0.48407
            104  H 13  S      0.31046     0.35363
            105  H 14  S      0.52694     0.47979
            106  H 14  S      0.29940     0.34796

          ----- MULLIKEN ATOMIC OVERLAP POPULATIONS -----
          (OFF-DIAGONAL ELEMENTS NEED TO BE MULTIPLIED BY 2)

             1           2           3           4           5

    1    4.6202329
    2    0.3863739   4.6202469
    3    0.5551553  -0.0542539   5.2143041
    4    0.5551935  -0.0542490  -0.0670180   5.2142679
    5   -0.0542682   0.5551475   0.0001839   0.0001838   5.2143105
    6   -0.0542630   0.5551875   0.0001837   0.0001842  -0.0670068
    7   -0.0326804   0.0045461   0.3713878  -0.0067367  -0.0000579
    8   -0.0306765  -0.0036775   0.3731228   0.0048312   0.0012841
    9    0.0045469  -0.0326719  -0.0000579  -0.0000579  -0.0067405
   10   -0.0036797  -0.0306803   0.0012839   0.0012840   0.0048322
   11    0.0045468  -0.0326772  -0.0000579  -0.0000579   0.3713833
   12   -0.0036780  -0.0306778   0.0012839   0.0012842   0.3731259
   13   -0.0326758   0.0045461  -0.0067383   0.3713878  -0.0000579
   14   -0.0306789  -0.0036788   0.0048320   0.3731224   0.0012841

             6           7           8           9          10

    6    5.2142728
    7   -0.0000579   0.5310449
    8    0.0012843  -0.0331101   0.5132163
    9    0.3713829   0.0000053  -0.0000604   0.5310502
   10    0.3731254  -0.0000604   0.0001794  -0.0331128   0.5132265
   11   -0.0067387   0.0000053  -0.0000604   0.0041068  -0.0000112
   12    0.0048314  -0.0000604   0.0001794  -0.0000112  -0.0001704
   13   -0.0000580   0.0041061  -0.0000111   0.0000053  -0.0000604
   14    0.0012841  -0.0000112  -0.0001704  -0.0000604   0.0001794

            11          12          13          14

   11    0.5310482
   12   -0.0331112   0.5132184
   13    0.0000053  -0.0000604   0.5310466
   14   -0.0000604   0.0001794  -0.0331115   0.5132233

          TOTAL MULLIKEN AND LOWDIN ATOMIC POPULATIONS
       ATOM         MULL.POP.    CHARGE          LOW.POP.     CHARGE
    1 C             5.883449    0.116551         6.001785   -0.001785
    2 C             5.883481    0.116519         6.001786   -0.001786
    3 C             6.393611   -0.393611         6.333652   -0.333652
    4 C             6.393620   -0.393620         6.333654   -0.333654
    5 C             6.393604   -0.393604         6.333653   -0.333653
    6 C             6.393612   -0.393612         6.333655   -0.333655
    7 H             0.838321    0.161679         0.837706    0.162294
    8 H             0.826331    0.173669         0.827747    0.172253
    9 H             0.838324    0.161676         0.837705    0.162295
   10 H             0.826336    0.173664         0.827749    0.172251
   11 H             0.838321    0.161679         0.837706    0.162294
   12 H             0.826333    0.173667         0.827748    0.172252
   13 H             0.838324    0.161676         0.837706    0.162294
   14 H             0.826333    0.173667         0.827748    0.172252

          -------------------------------
          BOND ORDER AND VALENCE ANALYSIS     BOND ORDER THRESHOLD=0.050
          -------------------------------

                   BOND                       BOND                       BOND
  ATOM PAIR DIST  ORDER      ATOM PAIR DIST  ORDER      ATOM PAIR DIST  ORDER
    1   2  1.496  0.985        1   3  1.375  1.478        1   4  1.375  1.479
    2   5  1.375  1.478        2   6  1.375  1.479        3   7  1.078  0.939
    3   8  1.076  0.938        4  13  1.078  0.939        4  14  1.076  0.938
    5  11  1.078  0.939        5  12  1.076  0.938        6   9  1.078  0.939
    6  10  1.076  0.938

                       TOTAL       BONDED        FREE
      ATOM            VALENCE     VALENCE     VALENCE
    1 C                 3.925       3.916       0.009
    2 C                 3.925       3.916       0.009
    3 C                 3.855       3.411       0.445
    4 C                 3.855       3.411       0.444
    5 C                 3.855       3.411       0.445
    6 C                 3.855       3.411       0.444
    7 H                 0.937       0.937      -0.000
    8 H                 0.937       0.937      -0.000
    9 H                 0.937       0.937      -0.000
   10 H                 0.937       0.937      -0.000
   11 H                 0.937       0.937      -0.000
   12 H                 0.937       0.937      -0.000
   13 H                 0.937       0.937      -0.000
   14 H                 0.937       0.937      -0.000

          -----------------------------------------
          ATOMIC SPIN DENSITY AT THE NUCLEUS (A.U.)
          -----------------------------------------
                            SPIN DENS    ALPHA DENS     BETA DENS
    1  C            6.0     0.0000000     117.88969     117.88969
    2  C            6.0     0.0000000     117.88970     117.88970
    3  C            6.0     0.0000000     117.88459     117.88459
    4  C            6.0     0.0000000     117.88459     117.88459
    5  C            6.0     0.0000000     117.88459     117.88459
    6  C            6.0     0.0000000     117.88459     117.88459
    7  H            1.0     0.0000000       0.42283       0.42283
    8  H            1.0     0.0000000       0.42258       0.42258
    9  H            1.0     0.0000000       0.42284       0.42284
   10  H            1.0     0.0000000       0.42258       0.42258
   11  H            1.0     0.0000000       0.42283       0.42283
   12  H            1.0     0.0000000       0.42258       0.42258
   13  H            1.0     0.0000000       0.42283       0.42283
   14  H            1.0     0.0000000       0.42258       0.42258

          ---------------------
          ELECTROSTATIC MOMENTS
          ---------------------

 POINT   1           X           Y           Z (BOHR)    CHARGE
                -0.000000   -0.000011    0.000009       -0.00 (A.U.)
         DX          DY          DZ         /D/  (DEBYE)
     0.000003    0.000041    0.000010    0.000043
 ...... END OF PROPERTY EVALUATION ......
 CPU     0: STEP CPU TIME=     0.04 TOTAL CPU TIME=         27.0 (      0.5 MIN)
 TOTAL WALL CLOCK TIME=         31.4 SECONDS, CPU UTILIZATION IS    86.11%

 BEGINNING ONE ELECTRON GRADIENT...
 TIME TO DO     ESPF GRADIENT INTEGRALS=     27.05
 ..... END OF 1-ELECTRON GRADIENT ......
 CPU     0: STEP CPU TIME=     0.01 TOTAL CPU TIME=         27.0 (      0.5 MIN)
 TOTAL WALL CLOCK TIME=         31.4 SECONDS, CPU UTILIZATION IS    86.09%

          ----------------------
          GRADIENT OF THE ENERGY
          ----------------------
 MEMORY FOR GRID POINT CONTRIBUTIONS TO THE TD-DFT GRADIENT=   1278443 WORDS.
 ==> REKS DFT XC gradient: microstate 1 done; CL( 1) =  0.65966762 CLSA( 1) =  0.62683870
 ==> REKS DFT XC gradient: microstate 2 done; CL( 2) =  0.34033238 CLSA( 2) =  0.32316130
 ==> REKS DFT XC gradient: microstate 3 done; CL( 3) = -0.47196853 CLSA( 3) = -0.39831082
 ==> REKS DFT XC gradient: microstate 4 done; CL( 4) =  0.47196853 CLSA( 4) =  0.42331082
 CPU     0: STEP CPU TIME=     6.35 TOTAL CPU TIME=         33.4 (      0.6 MIN)
 TOTAL WALL CLOCK TIME=         40.3 SECONDS, CPU UTILIZATION IS    82.90%

 THE MINIMUM MEMORY REQUIRED FOR THIS RUN IS     242488 WORDS.
 USING    1218008 WORDS FOR 2E- DERIVATIVE INTEGRAL CONTRIBUTIONS.
 ==> REKS 2e gradient: microstate 1 done; CL( 1) =  0.65966762 CLSA( 1) =  0.62683870
 ==> REKS 2e gradient: microstate 2 done; CL( 2) =  0.34033238 CLSA( 2) =  0.32316130
 ==> REKS 2e gradient: microstate 3 done; CL( 3) = -0.47196853 CLSA( 3) = -0.39831082
 ==> REKS 2e gradient: microstate 4 done; CL( 4) =  0.47196853 CLSA( 4) =  0.42331082
 THE COARSE/FINE SCHWARZ SCREENINGS SKIPPED    122606055/   119924181 BLOCKS.
 THE NUMBER OF GRADIENT INTEGRAL BLOCKS COMPUTED WAS 389879724
 ...... END OF 2-ELECTRON GRADIENT ......
 CPU     0: STEP CPU TIME=     1.37 TOTAL CPU TIME=         34.8 (      0.6 MIN)
 TOTAL WALL CLOCK TIME=         41.7 SECONDS, CPU UTILIZATION IS    83.32%

                         ----------------------
                         GRADIENT OF THE ENERGY
                         ----------------------

 UNITS ARE HARTREE/BOHR    E'X               E'Y               E'Z 
    1 C                0.000001923       0.000000763      -0.000038728
    2 C               -0.000001573       0.000000936       0.000043150
    3 C               -0.000035433       0.000035206       0.000009729
    4 C                0.000035269      -0.000035435       0.000009649
    5 C                0.000037623       0.000037416      -0.000011443
    6 C               -0.000037725      -0.000038055      -0.000011679
    7 H               -0.000001832       0.000001350       0.000008385
    8 H                0.000005576      -0.000005631       0.000005209
    9 H               -0.000001604      -0.000002027      -0.000008403
   10 H                0.000005488       0.000005563      -0.000005500
   11 H                0.000002026       0.000001586      -0.000008457
   12 H               -0.000005423      -0.000005507      -0.000005451
   13 H                0.000001306      -0.000001805       0.000008368
   14 H               -0.000005619       0.000005640       0.000005172

                   MAXIMUM GRADIENT =    0.000043150
                       RMS GRADIENT =    0.000019007
  $VIB   
          IVIB=   0 IATOM=   0 ICOORD=   0 E=     -233.1596240037
  1.923199074E-06 7.626580620E-07-3.872786209E-05-1.572953991E-06 9.360237787E-07
  4.315027038E-05-3.543300390E-05 3.520636763E-05 9.728717869E-06 3.526879376E-05
 -3.543472370E-05 9.649295431E-06 3.762262961E-05 3.741551783E-05-1.144269403E-05
 -3.772488416E-05-3.805467144E-05-1.167945806E-05-1.832437583E-06 1.350040567E-06
  8.385259733E-06 5.575981637E-06-5.630601226E-06 5.209160722E-06-1.603983828E-06
 -2.026635655E-06-8.403447732E-06 5.487807113E-06 5.562735826E-06-5.500265407E-06
  2.025523868E-06 1.586154222E-06-8.457160168E-06-5.423182406E-06-5.507188584E-06
 -5.451102876E-06 1.305749497E-06-1.805271561E-06 8.367656726E-06-5.619238689E-06
  5.639594243E-06 5.171629497E-06
  2.623604213E-06 4.142301970E-05 1.037913209E-05

..... END OF SINGLE POINT GRADIENT .....
 CPU     0: STEP CPU TIME=     0.00 TOTAL CPU TIME=         34.8 (      0.6 MIN)
 TOTAL WALL CLOCK TIME=         41.7 SECONDS, CPU UTILIZATION IS    83.30%
               1891722  WORDS OF DYNAMIC MEMORY USED
 EXECUTION OF GAMESS TERMINATED NORMALLY Fri Jun 16 15:55:52 2023
 DDI: 263640 bytes (0.3 MB / 0 MWords) used by master data server.

 ----------------------------------------
 CPU timing information for all processes
 ========================================
 0: 33.931 + 0.858 = 34.789
 1: 33.244 + 0.773 = 34.17
 2: 33.318 + 0.670 = 33.989
 3: 33.107 + 0.828 = 33.936
 4: 33.405 + 0.864 = 34.270
 5: 33.189 + 0.626 = 33.816
 6: 33.304 + 0.765 = 34.70
 7: 32.924 + 0.678 = 33.602
 8: 33.27 + 0.528 = 33.555
 9: 33.199 + 0.709 = 33.909
 10: 32.804 + 0.653 = 33.458
 11: 32.694 + 0.501 = 33.196
 ----------------------------------------
 ddikick.x: exited gracefully.
unset echo
----- accounting info -----
Files used on the master node cpn-p27-21.compute.cbls.ccr.buffalo.edu were:
-rw-rw-r-- 1 mofaruque mofaruque   219002 Jun 16 15:55 /user/mofaruque/work-dir/gam-scr/tme_90_gms.dat
-rw-rw-r-- 1 mofaruque mofaruque   183654 Jun 16 15:55 /user/mofaruque/work-dir/gam-scr/tme_90_gms.F05
-rw-rw-r-- 1 mofaruque mofaruque 14041248 Jun 16 15:55 /user/mofaruque/work-dir/gam-scr/tme_90_gms.F08
-rw-rw-r-- 1 mofaruque mofaruque 14041248 Jun 16 15:55 /user/mofaruque/work-dir/gam-scr/tme_90_gms.F08.001
-rw-rw-r-- 1 mofaruque mofaruque 14761312 Jun 16 15:55 /user/mofaruque/work-dir/gam-scr/tme_90_gms.F08.002
-rw-rw-r-- 1 mofaruque mofaruque 12601120 Jun 16 15:55 /user/mofaruque/work-dir/gam-scr/tme_90_gms.F08.003
-rw-rw-r-- 1 mofaruque mofaruque 14761312 Jun 16 15:55 /user/mofaruque/work-dir/gam-scr/tme_90_gms.F08.004
-rw-rw-r-- 1 mofaruque mofaruque 15121344 Jun 16 15:55 /user/mofaruque/work-dir/gam-scr/tme_90_gms.F08.005
-rw-rw-r-- 1 mofaruque mofaruque 13321184 Jun 16 15:55 /user/mofaruque/work-dir/gam-scr/tme_90_gms.F08.006
-rw-rw-r-- 1 mofaruque mofaruque 14041248 Jun 16 15:55 /user/mofaruque/work-dir/gam-scr/tme_90_gms.F08.007
-rw-rw-r-- 1 mofaruque mofaruque 14401280 Jun 16 15:55 /user/mofaruque/work-dir/gam-scr/tme_90_gms.F08.008
-rw-rw-r-- 1 mofaruque mofaruque 14041248 Jun 16 15:55 /user/mofaruque/work-dir/gam-scr/tme_90_gms.F08.009
-rw-rw-r-- 1 mofaruque mofaruque 13861232 Jun 16 15:55 /user/mofaruque/work-dir/gam-scr/tme_90_gms.F08.010
-rw-rw-r-- 1 mofaruque mofaruque 13861232 Jun 16 15:55 /user/mofaruque/work-dir/gam-scr/tme_90_gms.F08.011
-rw-rw-r-- 1 mofaruque mofaruque 73728000 Jun 16 15:55 /user/mofaruque/work-dir/gam-scr/tme_90_gms.F10
-rw-rw-r-- 1 mofaruque mofaruque  1879616 Jun 16 15:55 /user/mofaruque/work-dir/gam-scr/tme_90_gms.F22
-rw-rw-r-- 1 mofaruque mofaruque  1879616 Jun 16 15:55 /user/mofaruque/work-dir/gam-scr/tme_90_gms.F22.001
-rw-rw-r-- 1 mofaruque mofaruque  1879616 Jun 16 15:55 /user/mofaruque/work-dir/gam-scr/tme_90_gms.F22.002
-rw-rw-r-- 1 mofaruque mofaruque  1879616 Jun 16 15:55 /user/mofaruque/work-dir/gam-scr/tme_90_gms.F22.003
-rw-rw-r-- 1 mofaruque mofaruque  1879616 Jun 16 15:55 /user/mofaruque/work-dir/gam-scr/tme_90_gms.F22.004
-rw-rw-r-- 1 mofaruque mofaruque  1879616 Jun 16 15:55 /user/mofaruque/work-dir/gam-scr/tme_90_gms.F22.005
-rw-rw-r-- 1 mofaruque mofaruque  1879616 Jun 16 15:55 /user/mofaruque/work-dir/gam-scr/tme_90_gms.F22.006
-rw-rw-r-- 1 mofaruque mofaruque  1879616 Jun 16 15:55 /user/mofaruque/work-dir/gam-scr/tme_90_gms.F22.007
-rw-rw-r-- 1 mofaruque mofaruque  1879616 Jun 16 15:55 /user/mofaruque/work-dir/gam-scr/tme_90_gms.F22.008
-rw-rw-r-- 1 mofaruque mofaruque  1879616 Jun 16 15:55 /user/mofaruque/work-dir/gam-scr/tme_90_gms.F22.009
-rw-rw-r-- 1 mofaruque mofaruque  1879616 Jun 16 15:55 /user/mofaruque/work-dir/gam-scr/tme_90_gms.F22.010
-rw-rw-r-- 1 mofaruque mofaruque  1879616 Jun 16 15:55 /user/mofaruque/work-dir/gam-scr/tme_90_gms.F22.011
ls: No match.
ls: No match.
ls: No match.
Fri Jun 16 15:55:56 EDT 2023
0.238u 0.150s 0:45.50 0.8%	0+0k 0+552io 0pf+0w
