SLURM_JOBID=13777609
SLURM_JOB_NODELIST=cpn-p27-21
SLURM_NNODES=1
SLURMTMPDIR=/scratch/13777609
working directory=/user/mrecio/Tutorials_NWChem/4_GW/n2
 argument  1 = n2.nw
  NWChem w/ OpenMP: maximum threads =    2
                                         
                                         


             Northwest Computational Chemistry Package (NWChem) 7.2.0
             --------------------------------------------------------


                    Environmental Molecular Sciences Laboratory
                       Pacific Northwest National Laboratory
                                Richland, WA 99352

                              Copyright (c) 1994-2022
                       Pacific Northwest National Laboratory
                            Battelle Memorial Institute

             NWChem is an open-source computational chemistry package
                        distributed under the terms of the
                      Educational Community License (ECL) 2.0
             A copy of the license is included with this distribution
                              in the LICENSE.TXT file

                                  ACKNOWLEDGMENT
                                  --------------

            This software and its documentation were developed at the
            EMSL at Pacific Northwest National Laboratory, a multiprogram
            national laboratory, operated for the U.S. Department of Energy
            by Battelle under Contract Number DE-AC05-76RL01830. Support
            for this work was provided by the Department of Energy Office
            of Biological and Environmental Research, Office of Basic
            Energy Sciences, and the Office of Advanced Scientific Computing.


           Job information
           ---------------

    hostname        = cpn-p27-21.compute.cbls.ccr.buffalo.edu
    program         = /projects/academic/cyberwksp21/Software/nwchem_gcc/bin/nwchem
    date            = Wed Jun 21 10:05:20 2023

    compiled        = Mon_Jun_19_04:47:38_2023
    source          = /user/dmrodriguez/nwchem_gcc
    nwchem branch   = 7.2.0
    nwchem revision = 67bd80fc
    ga revision     = 5.8.0
    use scalapack   = T
    input           = n2.nw
    prefix          = n2.
    data base       = ./n2.db
    status          = startup
    nproc           =        5
    time left       =     -1s



           Memory information
           ------------------

    heap     =   26214394 doubles =    200.0 Mbytes
    stack    =   26214399 doubles =    200.0 Mbytes
    global   =   52428800 doubles =    400.0 Mbytes (distinct from heap & stack)
    total    =  104857593 doubles =    800.0 Mbytes
    verify   = yes
    hardfail = no 


           Directory information
           ---------------------

  0 permanent = .
  0 scratch   = .




                                NWChem Input Module
                                -------------------



 Scaling coordinates for geometry "geometry" by  1.889725989
 (inverse scale =  0.529177249)

 Turning off AUTOSYM since
 SYMMETRY directive was detected!


          ------
          auto-z
          ------
  no constraints, skipping    0.0000000000000000     
  no constraints, skipping    0.0000000000000000     


                             Geometry "geometry" -> ""
                             -------------------------

 Output coordinates in angstroms (scale by  1.889725989 to convert to a.u.)

  No.       Tag          Charge          X              Y              Z
 ---- ---------------- ---------- -------------- -------------- --------------
    1 N                    7.0000     0.00000000     0.00000000    -0.54500000
    2 N                    7.0000     0.00000000     0.00000000     0.54500000

      Atomic Mass 
      ----------- 

      N                 14.003070


 Effective nuclear repulsion energy (a.u.)      23.7887020193

            Nuclear Dipole moment (a.u.) 
            ----------------------------
        X                 Y               Z
 ---------------- ---------------- ----------------
     0.0000000000     0.0000000000     0.0000000000



                                Z-matrix (autoz)
                                -------- 

 Units are Angstrom for bonds and degrees for angles

      Type          Name      I     J     K     L     M      Value
      ----------- --------  ----- ----- ----- ----- ----- ----------
    1 Stretch                  1     2                       1.09000


            XYZ format geometry
            -------------------
     2
 geometry
 N                     0.00000000     0.00000000    -0.54500000
 N                     0.00000000     0.00000000     0.54500000

 ==============================================================================
                                internuclear distances
 ------------------------------------------------------------------------------
       center one      |      center two      | atomic units |  angstroms
 ------------------------------------------------------------------------------
    2 N                |   1 N                |     2.05980  |     1.09000
 ------------------------------------------------------------------------------
                         number of included internuclear distances:          1
 ==============================================================================



  library name resolved from: environment
  library file name is: </projects/academic/cyberwksp21/Software/nwchem_gcc/libraries.bse/>
  


 Summary of "ao basis" -> "" (spherical)
 ------------------------------------------------------------------------------
       Tag                 Description            Shells   Functions and Types
 ---------------- ------------------------------  ------  ---------------------
 *                         def2-qzvp                  on all atoms 


  library name resolved from: environment
  library file name is: </projects/academic/cyberwksp21/Software/nwchem_gcc/libraries.bse/>
  


 Summary of "cd basis" -> "" (spherical)
 ------------------------------------------------------------------------------
       Tag                 Description            Shells   Functions and Types
 ---------------- ------------------------------  ------  ---------------------
 *                    def2-universal-jkfit            on all atoms 



                                 NWChem GW Module
                                 ----------------



                                 NWChem DFT Module
                                 -----------------


                      Basis "ao basis" -> "ao basis" (spherical)
                      -----
  N (Nitrogen)
  ------------
            Exponent  Coefficients 
       -------------- ---------------------------------------------------------
  1 S  9.07268892E+04  0.000039
  1 S  1.35905288E+04  0.000305
  1 S  3.09298838E+03  0.001600
  1 S  8.75998764E+02  0.006698
  1 S  2.85744700E+02  0.023690
  1 S  1.03119134E+02  0.071455
  1 S  4.01285568E+01  0.176328
  1 S  1.65280957E+01  0.326776

  2 S  6.93909610E+01  0.080052
  2 S  2.04282006E+01  0.782681

  3 S  7.12925880E+00  1.000000

  4 S  3.13243049E+00  1.000000

  5 S  9.87557787E-01  1.000000

  6 S  3.87657213E-01  1.000000

  7 S  1.49098831E-01  1.000000

  8 P  1.50057427E+02 -0.000862
  8 P  3.54915995E+01 -0.006857
  8 P  1.12478642E+01 -0.031796
  8 P  4.09003052E+00 -0.105374
  8 P  1.62205731E+00 -0.245197

  9 P  6.64422615E-01  1.000000

 10 P  2.70997701E-01  1.000000

 11 P  1.06887500E-01  1.000000

 12 D  2.83700000E+00  1.000000

 13 D  9.68000000E-01  1.000000

 14 D  3.35000000E-01  1.000000

 15 F  2.02700000E+00  1.000000

 16 F  6.85000000E-01  1.000000

 17 G  1.42700000E+00  1.000000



 Summary of "ao basis" -> "ao basis" (spherical)
 ------------------------------------------------------------------------------
       Tag                 Description            Shells   Functions and Types
 ---------------- ------------------------------  ------  ---------------------
 N                         def2-qzvp                17       57   7s4p3d2f1g


                      Basis "cd basis" -> "cd basis" (spherical)
                      -----
  N (Nitrogen)
  ------------
            Exponent  Coefficients 
       -------------- ---------------------------------------------------------
  1 S  5.02860849E+02  0.179487
  1 S  2.09965005E+02  0.163949
  1 S  9.24340089E+01  0.552980
  1 S  4.28175835E+01  0.585821
  1 S  2.08176154E+01  0.531926

  2 S  1.05912894E+01  0.094799

  3 S  5.61865430E+00  1.000000

  4 S  3.09526890E+00  1.000000

  5 S  1.76248850E+00  1.000000

  6 S  1.03197370E+00  1.000000

  7 S  6.17835200E-01  1.000000

  8 S  3.75934300E-01  1.000000

  9 S  2.31008300E-01  1.000000

 10 S  1.42422400E-01  1.000000

 11 P  4.46074972E+01  0.515301
 11 P  2.25230671E+01  0.193833
 11 P  1.13723303E+01  0.810422

 12 P  5.74213440E+00  0.200274

 13 P  2.89933840E+00  1.000000

 14 P  1.46394860E+00  1.000000

 15 P  7.39186100E-01  1.000000

 16 P  3.73235100E-01  1.000000

 17 P  1.88456700E-01  1.000000

 18 P  9.51571000E-02  1.000000

 19 D  4.68440406E+01  0.039944
 19 D  1.48824561E+01  0.272165
 19 D  5.34370660E+00  0.961421

 20 D  2.11541990E+00  1.000000

 21 D  8.92321800E-01  1.000000

 22 D  3.84804300E-01  1.000000

 23 F  2.42297880E+00  0.692229

 24 F  8.33544100E-01  0.721678

 25 G  1.45867910E+00  1.000000



 Summary of "cd basis" -> "cd basis" (spherical)
 ------------------------------------------------------------------------------
       Tag                 Description            Shells   Functions and Types
 ---------------- ------------------------------  ------  ---------------------
 N                    def2-universal-jkfit          25       77   10s8p4d2f1g




 Summary of "ao basis" -> "ao basis" (spherical)
 ------------------------------------------------------------------------------
       Tag                 Description            Shells   Functions and Types
 ---------------- ------------------------------  ------  ---------------------
 N                         def2-qzvp                17       57   7s4p3d2f1g


  Caching 1-el integrals 

            General Information
            -------------------
          SCF calculation type: DFT
          Wavefunction type:  closed shell.
          No. of atoms     :     2
          No. of electrons :    14
           Alpha electrons :     7
            Beta electrons :     7
          Charge           :     0
          Spin multiplicity:     1
          Use of symmetry is: off; symmetry adaption is: off
          Maximum number of iterations:  50
          AO basis - number of functions:   114
                     number of shells:    34
          A Charge density fitting basis will be used.
          CD basis - number of functions:   154
                     number of shells:    50
          Convergence on energy requested:  1.00D-06
          Convergence on density requested:  1.00D-05
          Convergence on gradient requested:  5.00D-04

              XC Information
              --------------
          Using LibXC version      6.1.0
                                     mgga_x_r2scan  1.000
                                     mgga_c_r2scan  1.000

             Grid Information
             ----------------
          Grid used for XC integration:  medium    
          Radial quadrature: Mura-Knowles        
          Angular quadrature: Lebedev. 
          Tag              B.-S. Rad. Rad. Pts. Rad. Cut. Ang. Pts.
          ---              ---------- --------- --------- ---------
          N                   0.65       49           7.0       434
          Grid pruning is: on 
          Number of quadrature shells:    98
          Spatial weights used:  Erf1

          Convergence Information
          -----------------------
          Convergence aids based upon iterative change in 
          total energy or number of iterations. 
          Levelshifting, if invoked, occurs when the 
          HOMO/LUMO gap drops below (HL_TOL):  1.00D-02
          DIIS, if invoked, will attempt to extrapolate 
          using up to (NFOCK): 10 stored Fock matrices.

                    Damping( 0%)  Levelshifting(0.5)       DIIS
                  --------------- ------------------- ---------------
          dE  on:    start            ASAP                start   
          dE off:    2 iters         50 iters            50 iters 


      Screening Tolerance Information
      -------------------------------
          Density screening/tol_rho:  1.00D-10
          AO Gaussian exp screening on grid/accAOfunc:  14
          CD Gaussian exp screening on grid/accCDfunc:  20
          XC Gaussian exp screening on grid/accXCfunc:  20
          Schwarz screening/accCoul:  1.00D-08


      Superposition of Atomic Density Guess
      -------------------------------------

 Sum of atomic energies:        -108.62655346

      Non-variational initial energy
      ------------------------------

 Total energy =    -109.161673
 1-e energy   =    -194.197339
 2-e energy   =      61.246964
 HOMO         =      -0.433160
 LUMO         =       0.018437

  WARNING: movecs_in_org=atomic not equal to movecs_in=./n2.movecs
   Time after variat. SCF:      1.3

      3 Center 2 Electron Integral Information
      ----------------------------------------
          Maximum number of 3-center 2e- integrals is:         2001384.
            This is reduced with Schwarz screening to:         2393776.
            Incore requires a per proc buffer size of:          500347.
          Minimum dble words available (all nodes) is:        52418396
                   This is reduced (for later use) to:        51923817
                      proc 0 Suggested buffer size is:          500347
                         Max Suggested buffer size is:          500347
                              no. integral batches is:            1000

           0.500 MW buffer allocated for incore 3-center 
          2e- integral storage on stack. 
   Time prior to 1st pass:      1.5
  avail0,avail1,avail0-avail1                  8868                 8868                    0
  avail0,avail1,avail0-avail1                  8868                 8868                    0
  avail0,avail1,avail0-avail1                  8868                 8868                    0
  avail0,avail1,avail0-avail1                  8868                 8868                    0

 Grid_pts file          = ./n2.gridpts.0
 Record size in doubles =  12289        No. of grid_pts per rec  =   3070
 Max. records in memory =      5        Max. recs in file   =       709


           Memory utilization after 1st SCF pass: 
           Heap Space remaining (MW):       26.14            26143210
          Stack Space remaining (MW):       25.71            25712332

   convergence    iter        energy       DeltaE   RMS-Dens  Diis-err    time
 ---------------- ----- ----------------- --------- --------- ---------  ------
 d= 0,ls=0.0,diis     1   -109.5013280978 -1.33D+02  1.81D-03  5.54D-01     1.9
 d= 0,ls=0.0,diis     2   -109.5125933505 -1.13D-02  1.12D-03  4.98D-02     2.0
 d= 0,ls=0.0,diis     3   -109.5160792102 -3.49D-03  3.77D-04  1.28D-02     2.1
 d= 0,ls=0.0,diis     4   -109.5172743048 -1.20D-03  1.18D-05  3.23D-07     2.2
 d= 0,ls=0.0,diis     5   -109.5172743260 -2.12D-08  5.02D-07  2.61D-08     2.3


         Total DFT energy =     -109.517274325984
      One electron energy =     -194.908952172633
           Coulomb energy =       75.258834618098
    Exchange-Corr. energy =      -13.655858790701
 Nuclear repulsion energy =       23.788702019252

 Numeric. integr. density =       13.999999865817

     Total iterative time =      0.9s



                       DFT Final Molecular Orbital Analysis
                       ------------------------------------

 Vector    1  Occ=2.000000D+00  E=-1.425970D+01
              MO Center= -1.1D-17, -3.6D-17, -2.4D-05, r^2= 3.2D-01
   Bfn.  Coefficient  Atom+Function         Bfn.  Coefficient  Atom+Function  
  ----- ------------  ---------------      ----- ------------  ---------------
     1      0.393655  1 N  s                 58      0.393638  2 N  s          
     3      0.257631  1 N  s                 60      0.257620  2 N  s          
     4      0.120951  1 N  s                 61      0.120945  2 N  s          

 Vector    2  Occ=2.000000D+00  E=-1.425816D+01
              MO Center=  4.6D-17,  5.6D-19,  2.4D-05, r^2= 3.2D-01
   Bfn.  Coefficient  Atom+Function         Bfn.  Coefficient  Atom+Function  
  ----- ------------  ---------------      ----- ------------  ---------------
     1      0.393813  1 N  s                 58     -0.393831  2 N  s          
     3      0.258261  1 N  s                 60     -0.258272  2 N  s          
     4      0.119782  1 N  s                 61     -0.119787  2 N  s          

 Vector    3  Occ=2.000000D+00  E=-1.091722D+00
              MO Center= -3.3D-15,  2.8D-15, -1.2D-08, r^2= 4.3D-01
   Bfn.  Coefficient  Atom+Function         Bfn.  Coefficient  Atom+Function  
  ----- ------------  ---------------      ----- ------------  ---------------
     6      0.286064  1 N  s                 63      0.286064  2 N  s          
     5      0.218149  1 N  s                 62      0.218149  2 N  s          
    10     -0.127345  1 N  pz                67      0.127345  2 N  pz         
    13      0.110916  1 N  pz                70     -0.110916  2 N  pz         
     3     -0.104138  1 N  s                 60     -0.104138  2 N  s          

 Vector    4  Occ=2.000000D+00  E=-5.208245D-01
              MO Center= -8.9D-15,  3.3D-15, -1.8D-07, r^2= 1.3D+00
   Bfn.  Coefficient  Atom+Function         Bfn.  Coefficient  Atom+Function  
  ----- ------------  ---------------      ----- ------------  ---------------
     6      0.426343  1 N  s                 63     -0.426342  2 N  s          
     7      0.258542  1 N  s                 64     -0.258542  2 N  s          
     5      0.209616  1 N  s                 62     -0.209616  2 N  s          
    10      0.110171  1 N  pz                67      0.110171  2 N  pz         
     3     -0.100420  1 N  s                 60      0.100420  2 N  s          

 Vector    5  Occ=2.000000D+00  E=-4.415435D-01
              MO Center= -4.2D-14,  1.2D-14, -4.0D-08, r^2= 8.8D-01
   Bfn.  Coefficient  Atom+Function         Bfn.  Coefficient  Atom+Function  
  ----- ------------  ---------------      ----- ------------  ---------------
     8      0.227480  1 N  px                11     -0.226417  1 N  px         
    65      0.227480  2 N  px                68     -0.226417  2 N  px         
    14     -0.189664  1 N  px                71     -0.189664  2 N  px         
     9     -0.061780  1 N  py                12      0.061492  1 N  py         
    66     -0.061780  2 N  py                69      0.061492  2 N  py         

 Vector    6  Occ=2.000000D+00  E=-4.415435D-01
              MO Center=  6.1D-15,  2.2D-14, -4.0D-08, r^2= 8.8D-01
   Bfn.  Coefficient  Atom+Function         Bfn.  Coefficient  Atom+Function  
  ----- ------------  ---------------      ----- ------------  ---------------
     9      0.227480  1 N  py                12     -0.226417  1 N  py         
    66      0.227480  2 N  py                69     -0.226417  2 N  py         
    15     -0.189664  1 N  py                72     -0.189664  2 N  py         
     8      0.061780  1 N  px                11     -0.061492  1 N  px         
    65      0.061780  2 N  px                68     -0.061492  2 N  px         

 Vector    7  Occ=2.000000D+00  E=-3.933369D-01
              MO Center=  4.1D-14, -3.5D-14,  1.9D-07, r^2= 1.3D+00
   Bfn.  Coefficient  Atom+Function         Bfn.  Coefficient  Atom+Function  
  ----- ------------  ---------------      ----- ------------  ---------------
    10      0.250780  1 N  pz                67     -0.250780  2 N  pz         
    13     -0.234904  1 N  pz                70      0.234904  2 N  pz         
     7      0.231896  1 N  s                 64      0.231896  2 N  s          
    16     -0.156347  1 N  pz                73      0.156347  2 N  pz         
     6      0.152135  1 N  s                 63      0.152135  2 N  s          

 Vector    8  Occ=0.000000D+00  E=-5.555217D-02
              MO Center=  6.2D-15,  2.4D-15,  3.8D-08, r^2= 1.4D+00
   Bfn.  Coefficient  Atom+Function         Bfn.  Coefficient  Atom+Function  
  ----- ------------  ---------------      ----- ------------  ---------------
    17      0.322488  1 N  px                74     -0.322488  2 N  px         
    14      0.295124  1 N  px                71     -0.295124  2 N  px         
    11      0.257649  1 N  px                68     -0.257649  2 N  px         
     8     -0.247236  1 N  px                65      0.247236  2 N  px         
    18      0.118243  1 N  py                75     -0.118243  2 N  py         

 Vector    9  Occ=0.000000D+00  E=-5.555217D-02
              MO Center=  2.8D-15, -7.0D-15,  3.8D-08, r^2= 1.4D+00
   Bfn.  Coefficient  Atom+Function         Bfn.  Coefficient  Atom+Function  
  ----- ------------  ---------------      ----- ------------  ---------------
    18      0.322488  1 N  py                75     -0.322488  2 N  py         
    15      0.295124  1 N  py                72     -0.295124  2 N  py         
    12      0.257649  1 N  py                69     -0.257649  2 N  py         
     9     -0.247236  1 N  py                66      0.247236  2 N  py         
    17     -0.118243  1 N  px                74      0.118243  2 N  px         

 Vector   10  Occ=0.000000D+00  E= 1.976948D-01
              MO Center=  1.1D-14,  3.0D-14, -2.3D-07, r^2= 6.5D+00
   Bfn.  Coefficient  Atom+Function         Bfn.  Coefficient  Atom+Function  
  ----- ------------  ---------------      ----- ------------  ---------------
     7      5.668752  1 N  s                 64     -5.668752  2 N  s          
    19      2.013155  1 N  pz                76      2.013154  2 N  pz         
    16      1.517332  1 N  pz                73      1.517332  2 N  pz         
     6      1.120261  1 N  s                 63     -1.120261  2 N  s          
    32      0.416224  1 N  d  0              89     -0.416224  2 N  d  0       

 Vector   11  Occ=0.000000D+00  E= 2.177535D-01
              MO Center= -6.3D-15, -4.0D-14, -6.6D-08, r^2= 4.5D+00
   Bfn.  Coefficient  Atom+Function         Bfn.  Coefficient  Atom+Function  
  ----- ------------  ---------------      ----- ------------  ---------------
    18      0.750900  1 N  py                75      0.750900  2 N  py         
    15     -0.431483  1 N  py                72     -0.431483  2 N  py         
    17      0.132286  1 N  px                74      0.132286  2 N  px         
     9      0.130275  1 N  py                66      0.130275  2 N  py         
    14     -0.076014  1 N  px                71     -0.076014  2 N  px         

 Vector   12  Occ=0.000000D+00  E= 2.177535D-01
              MO Center= -4.0D-16, -1.3D-16, -6.6D-08, r^2= 4.5D+00
   Bfn.  Coefficient  Atom+Function         Bfn.  Coefficient  Atom+Function  
  ----- ------------  ---------------      ----- ------------  ---------------
    17      0.750900  1 N  px                74      0.750900  2 N  px         
    14     -0.431483  1 N  px                71     -0.431483  2 N  px         
    18     -0.132286  1 N  py                75     -0.132286  2 N  py         
     8      0.130275  1 N  px                65      0.130275  2 N  px         
    15      0.076014  1 N  py                72      0.076014  2 N  py         

 Vector   13  Occ=0.000000D+00  E= 2.783762D-01
              MO Center= -1.1D-14,  2.9D-14,  1.8D-07, r^2= 4.1D+00
   Bfn.  Coefficient  Atom+Function         Bfn.  Coefficient  Atom+Function  
  ----- ------------  ---------------      ----- ------------  ---------------
     6      1.435280  1 N  s                 63      1.435280  2 N  s          
     7     -1.391515  1 N  s                 64     -1.391514  2 N  s          
    19      0.720151  1 N  pz                76     -0.720152  2 N  pz         
    16     -0.631770  1 N  pz                73      0.631769  2 N  pz         
    32     -0.236471  1 N  d  0              89     -0.236471  2 N  d  0       

 Vector   14  Occ=0.000000D+00  E= 2.854768D-01
              MO Center=  2.2D-14,  7.3D-15,  3.2D-08, r^2= 4.2D+00
   Bfn.  Coefficient  Atom+Function         Bfn.  Coefficient  Atom+Function  
  ----- ------------  ---------------      ----- ------------  ---------------
    19      1.232040  1 N  pz                76     -1.232040  2 N  pz         
     6     -0.786586  1 N  s                 63     -0.786586  2 N  s          
     7      0.317153  1 N  s                 64      0.317154  2 N  s          
    32      0.105868  1 N  d  0              89      0.105868  2 N  d  0       
    13     -0.055856  1 N  pz                70      0.055856  2 N  pz         

 Vector   15  Occ=0.000000D+00  E= 3.481635D-01
              MO Center=  2.3D-15, -9.0D-15,  6.2D-08, r^2= 5.4D+00
   Bfn.  Coefficient  Atom+Function         Bfn.  Coefficient  Atom+Function  
  ----- ------------  ---------------      ----- ------------  ---------------
    18      1.902854  1 N  py                75     -1.902854  2 N  py         
    15     -0.726941  1 N  py                72      0.726941  2 N  py         
    17     -0.631301  1 N  px                74      0.631301  2 N  px         
    14      0.241174  1 N  px                71     -0.241174  2 N  px         
     9      0.156043  1 N  py                66     -0.156043  2 N  py         

 Vector   16  Occ=0.000000D+00  E= 3.481635D-01
              MO Center= -2.3D-14, -8.2D-15,  6.2D-08, r^2= 5.4D+00
   Bfn.  Coefficient  Atom+Function         Bfn.  Coefficient  Atom+Function  
  ----- ------------  ---------------      ----- ------------  ---------------
    17      1.902854  1 N  px                74     -1.902854  2 N  px         
    14     -0.726941  1 N  px                71      0.726941  2 N  px         
    18      0.631301  1 N  py                75     -0.631301  2 N  py         
    15     -0.241174  1 N  py                72      0.241174  2 N  py         
     8      0.156043  1 N  px                65     -0.156043  2 N  px         

 Vector   17  Occ=0.000000D+00  E= 5.543235D-01
              MO Center=  4.2D-14,  1.0D-14,  1.1D-08, r^2= 3.9D+00
   Bfn.  Coefficient  Atom+Function         Bfn.  Coefficient  Atom+Function  
  ----- ------------  ---------------      ----- ------------  ---------------
     7     14.912607  1 N  s                 64    -14.912607  2 N  s          
    16      6.480477  1 N  pz                73      6.480477  2 N  pz         
     6      3.782709  1 N  s                 63     -3.782709  2 N  s          
    19      2.502269  1 N  pz                76      2.502269  2 N  pz         
    32      1.332452  1 N  d  0              89     -1.332452  2 N  d  0       

 Vector   18  Occ=0.000000D+00  E= 6.065905D-01
              MO Center= -7.3D-16,  1.6D-15, -2.1D-08, r^2= 1.7D+00
   Bfn.  Coefficient  Atom+Function         Bfn.  Coefficient  Atom+Function  
  ----- ------------  ---------------      ----- ------------  ---------------
    30      0.589713  1 N  d -2              87      0.589713  2 N  d -2       
    20      0.031024  1 N  d -2              77      0.031024  2 N  d -2       
    25     -0.029124  1 N  d -2              82     -0.029124  2 N  d -2       

 Vector   19  Occ=0.000000D+00  E= 6.065907D-01
              MO Center=  3.5D-16,  4.0D-16, -2.1D-08, r^2= 1.7D+00
   Bfn.  Coefficient  Atom+Function         Bfn.  Coefficient  Atom+Function  
  ----- ------------  ---------------      ----- ------------  ---------------
    34      0.589713  1 N  d  2              91      0.589713  2 N  d  2       
    24      0.031024  1 N  d  2              81      0.031024  2 N  d  2       
    29     -0.029124  1 N  d  2              86     -0.029124  2 N  d  2       

 Vector   20  Occ=0.000000D+00  E= 6.461204D-01
              MO Center= -5.2D-16,  5.9D-15, -1.9D-08, r^2= 3.5D+00
   Bfn.  Coefficient  Atom+Function         Bfn.  Coefficient  Atom+Function  
  ----- ------------  ---------------      ----- ------------  ---------------
     7     11.387865  1 N  s                 64    -11.387865  2 N  s          
    16      3.767376  1 N  pz                73      3.767376  2 N  pz         
    19      2.453525  1 N  pz                76      2.453525  2 N  pz         
     6      2.011508  1 N  s                 63     -2.011508  2 N  s          
    32      1.406495  1 N  d  0              89     -1.406495  2 N  d  0       

 Vector   21  Occ=0.000000D+00  E= 8.712335D-01
              MO Center= -4.3D-15,  7.8D-15, -2.7D-08, r^2= 2.2D+00
   Bfn.  Coefficient  Atom+Function         Bfn.  Coefficient  Atom+Function  
  ----- ------------  ---------------      ----- ------------  ---------------
    31      0.606281  1 N  d -1              88     -0.606281  2 N  d -1       
    15     -0.463237  1 N  py                72     -0.463237  2 N  py         
    33      0.409082  1 N  d  1              90     -0.409082  2 N  d  1       
    14      0.312564  1 N  px                71      0.312564  2 N  px         
    18      0.233718  1 N  py                75      0.233718  2 N  py         

 Vector   22  Occ=0.000000D+00  E= 8.712335D-01
              MO Center= -2.5D-15, -1.8D-15, -2.7D-08, r^2= 2.2D+00
   Bfn.  Coefficient  Atom+Function         Bfn.  Coefficient  Atom+Function  
  ----- ------------  ---------------      ----- ------------  ---------------
    33      0.606281  1 N  d  1              90     -0.606281  2 N  d  1       
    14      0.463237  1 N  px                71      0.463237  2 N  px         
    31     -0.409082  1 N  d -1              88      0.409082  2 N  d -1       
    15      0.312564  1 N  py                72      0.312564  2 N  py         
    17     -0.233718  1 N  px                74     -0.233718  2 N  px         

 Vector   23  Occ=0.000000D+00  E= 9.730446D-01
              MO Center= -1.9D-15,  1.9D-14, -2.4D-08, r^2= 3.6D+00
   Bfn.  Coefficient  Atom+Function         Bfn.  Coefficient  Atom+Function  
  ----- ------------  ---------------      ----- ------------  ---------------
    19      1.392123  1 N  pz                76     -1.392123  2 N  pz         
     6     -0.980473  1 N  s                 63     -0.980473  2 N  s          
    16     -0.864400  1 N  pz                73      0.864399  2 N  pz         
    32      0.795402  1 N  d  0              89      0.795402  2 N  d  0       
    13      0.350277  1 N  pz                70     -0.350277  2 N  pz         

 Vector   24  Occ=0.000000D+00  E= 9.859352D-01
              MO Center= -2.0D-15,  7.2D-15,  1.9D-08, r^2= 2.1D+00
   Bfn.  Coefficient  Atom+Function         Bfn.  Coefficient  Atom+Function  
  ----- ------------  ---------------      ----- ------------  ---------------
    30      1.054785  1 N  d -2              87     -1.054785  2 N  d -2       
    25     -0.054041  1 N  d -2              82      0.054041  2 N  d -2       
    43      0.043999  1 N  f -2             100      0.043999  2 N  f -2       
    20      0.033943  1 N  d -2              77     -0.033943  2 N  d -2       

 Vector   25  Occ=0.000000D+00  E= 9.859355D-01
              MO Center=  4.3D-15, -1.4D-15,  1.9D-08, r^2= 2.1D+00
   Bfn.  Coefficient  Atom+Function         Bfn.  Coefficient  Atom+Function  
  ----- ------------  ---------------      ----- ------------  ---------------
    34      1.054785  1 N  d  2              91     -1.054785  2 N  d  2       
    29     -0.054041  1 N  d  2              86      0.054041  2 N  d  2       
    47      0.043999  1 N  f  2             104      0.043999  2 N  f  2       
    24      0.033943  1 N  d  2              81     -0.033943  2 N  d  2       

 Vector   26  Occ=0.000000D+00  E= 1.069171D+00
              MO Center= -1.1D-14,  8.1D-17, -8.1D-08, r^2= 2.4D+00
   Bfn.  Coefficient  Atom+Function         Bfn.  Coefficient  Atom+Function  
  ----- ------------  ---------------      ----- ------------  ---------------
    14      1.373166  1 N  px                71      1.373166  2 N  px         
    11     -0.838579  1 N  px                68     -0.838579  2 N  px         
    17     -0.615841  1 N  px                74     -0.615841  2 N  px         
    15     -0.268263  1 N  py                72     -0.268263  2 N  py         
     8      0.207853  1 N  px                65      0.207853  2 N  px         

 Vector   27  Occ=0.000000D+00  E= 1.069171D+00
              MO Center=  3.8D-15,  2.1D-14, -8.1D-08, r^2= 2.4D+00
   Bfn.  Coefficient  Atom+Function         Bfn.  Coefficient  Atom+Function  
  ----- ------------  ---------------      ----- ------------  ---------------
    15      1.373166  1 N  py                72      1.373166  2 N  py         
    12     -0.838579  1 N  py                69     -0.838579  2 N  py         
    18     -0.615841  1 N  py                75     -0.615841  2 N  py         
    14      0.268263  1 N  px                71      0.268263  2 N  px         
     9      0.207853  1 N  py                66      0.207853  2 N  py         

 Vector   28  Occ=0.000000D+00  E= 1.183339D+00
              MO Center= -2.1D-13, -8.9D-14,  9.6D-08, r^2= 3.0D+00
   Bfn.  Coefficient  Atom+Function         Bfn.  Coefficient  Atom+Function  
  ----- ------------  ---------------      ----- ------------  ---------------
    14      1.642664  1 N  px                71     -1.642664  2 N  px         
    17     -1.397485  1 N  px                74      1.397485  2 N  px         
    11     -0.707174  1 N  px                68      0.707174  2 N  px         
    15      0.687832  1 N  py                72     -0.687832  2 N  py         
    18     -0.585168  1 N  py                75      0.585168  2 N  py         

 Vector   29  Occ=0.000000D+00  E= 1.183339D+00
              MO Center= -3.1D-14,  8.8D-14,  9.6D-08, r^2= 3.0D+00
   Bfn.  Coefficient  Atom+Function         Bfn.  Coefficient  Atom+Function  
  ----- ------------  ---------------      ----- ------------  ---------------
    15      1.642664  1 N  py                72     -1.642664  2 N  py         
    18     -1.397485  1 N  py                75      1.397485  2 N  py         
    12     -0.707174  1 N  py                69      0.707174  2 N  py         
    14     -0.687832  1 N  px                71      0.687832  2 N  px         
    17      0.585168  1 N  px                74     -0.585168  2 N  px         

 Vector   30  Occ=0.000000D+00  E= 1.214401D+00
              MO Center=  3.4D-13,  6.1D-15,  1.1D-08, r^2= 2.8D+00
   Bfn.  Coefficient  Atom+Function         Bfn.  Coefficient  Atom+Function  
  ----- ------------  ---------------      ----- ------------  ---------------
     7      8.835436  1 N  s                 64     -8.835436  2 N  s          
    16      7.125964  1 N  pz                73      7.125964  2 N  pz         
     6      5.337542  1 N  s                 63     -5.337542  2 N  s          
    32      1.270375  1 N  d  0              89     -1.270374  2 N  d  0       
     5     -0.769773  1 N  s                 62      0.769773  2 N  s          

 Vector   31  Occ=0.000000D+00  E= 1.375230D+00
              MO Center=  1.7D-14, -5.6D-14, -8.1D-09, r^2= 2.7D+00
   Bfn.  Coefficient  Atom+Function         Bfn.  Coefficient  Atom+Function  
  ----- ------------  ---------------      ----- ------------  ---------------
     6      3.546306  1 N  s                 63      3.546307  2 N  s          
    16     -3.459786  1 N  pz                73      3.459786  2 N  pz         
    32     -2.536922  1 N  d  0              89     -2.536922  2 N  d  0       
     7     -1.986895  1 N  s                 64     -1.986894  2 N  s          
    13      1.465449  1 N  pz                70     -1.465449  2 N  pz         

 Vector   32  Occ=0.000000D+00  E= 1.381463D+00
              MO Center= -3.1D-14,  5.3D-14,  1.3D-08, r^2= 2.7D+00
   Bfn.  Coefficient  Atom+Function         Bfn.  Coefficient  Atom+Function  
  ----- ------------  ---------------      ----- ------------  ---------------
    15      4.292541  1 N  py                72     -4.292541  2 N  py         
    31      3.004747  1 N  d -1              88      3.004747  2 N  d -1       
    14     -2.411315  1 N  px                71      2.411315  2 N  px         
    33      1.687903  1 N  d  1              90      1.687903  2 N  d  1       
    44      0.427074  1 N  f -1             101     -0.427074  2 N  f -1       

 Vector   33  Occ=0.000000D+00  E= 1.381463D+00
              MO Center= -2.8D-13, -1.6D-13,  1.3D-08, r^2= 2.7D+00
   Bfn.  Coefficient  Atom+Function         Bfn.  Coefficient  Atom+Function  
  ----- ------------  ---------------      ----- ------------  ---------------
    14      4.292541  1 N  px                71     -4.292541  2 N  px         
    33     -3.004747  1 N  d  1              90     -3.004747  2 N  d  1       
    15      2.411315  1 N  py                72     -2.411315  2 N  py         
    31      1.687903  1 N  d -1              88      1.687903  2 N  d -1       
    46     -0.427074  1 N  f  1             103      0.427074  2 N  f  1       

 Vector   34  Occ=0.000000D+00  E= 1.521231D+00
              MO Center=  2.0D-13,  4.9D-14,  3.5D-08, r^2= 3.0D+00
   Bfn.  Coefficient  Atom+Function         Bfn.  Coefficient  Atom+Function  
  ----- ------------  ---------------      ----- ------------  ---------------
     7     18.649168  1 N  s                 64    -18.649168  2 N  s          
    16     11.615341  1 N  pz                73     11.615341  2 N  pz         
     6     10.742387  1 N  s                 63    -10.742387  2 N  s          
    32      3.823008  1 N  d  0              89     -3.823008  2 N  d  0       
    19      2.626839  1 N  pz                76      2.626839  2 N  pz         

 Vector   35  Occ=0.000000D+00  E= 2.016422D+00
              MO Center=  4.9D-15, -1.6D-14,  9.5D-10, r^2= 1.5D+00
   Bfn.  Coefficient  Atom+Function         Bfn.  Coefficient  Atom+Function  
  ----- ------------  ---------------      ----- ------------  ---------------
     5      1.880213  1 N  s                 62      1.880213  2 N  s          
     6     -1.698515  1 N  s                 63     -1.698514  2 N  s          
     7      0.580067  1 N  s                 64      0.580068  2 N  s          
     4     -0.444979  1 N  s                 61     -0.444979  2 N  s          
    32     -0.440188  1 N  d  0              89     -0.440188  2 N  d  0       

 Vector   36  Occ=0.000000D+00  E= 2.241229D+00
              MO Center=  1.3D-15, -3.7D-15, -1.8D-08, r^2= 1.2D+00
   Bfn.  Coefficient  Atom+Function         Bfn.  Coefficient  Atom+Function  
  ----- ------------  ---------------      ----- ------------  ---------------
    48      0.663714  1 N  f  3             105      0.663714  2 N  f  3       
    41     -0.062491  1 N  f  3              98     -0.062491  2 N  f  3       

 Vector   37  Occ=0.000000D+00  E= 2.241229D+00
              MO Center= -6.8D-16,  1.3D-16, -1.8D-08, r^2= 1.2D+00
   Bfn.  Coefficient  Atom+Function         Bfn.  Coefficient  Atom+Function  
  ----- ------------  ---------------      ----- ------------  ---------------
    42      0.663714  1 N  f -3              99      0.663714  2 N  f -3       
    35     -0.062491  1 N  f -3              92     -0.062491  2 N  f -3       

 Vector   38  Occ=0.000000D+00  E= 2.308688D+00
              MO Center=  1.3D-15,  3.2D-15, -7.3D-09, r^2= 1.2D+00
   Bfn.  Coefficient  Atom+Function         Bfn.  Coefficient  Atom+Function  
  ----- ------------  ---------------      ----- ------------  ---------------
    43      0.513329  1 N  f -2             100     -0.513329  2 N  f -2       
    25      0.418899  1 N  d -2              82      0.418899  2 N  d -2       
    30     -0.350760  1 N  d -2              87     -0.350760  2 N  d -2       
    36     -0.038875  1 N  f -2              93      0.038875  2 N  f -2       

 Vector   39  Occ=0.000000D+00  E= 2.308688D+00
              MO Center= -5.7D-16, -1.1D-16, -7.3D-09, r^2= 1.2D+00
   Bfn.  Coefficient  Atom+Function         Bfn.  Coefficient  Atom+Function  
  ----- ------------  ---------------      ----- ------------  ---------------
    47      0.513330  1 N  f  2             104     -0.513330  2 N  f  2       
    29      0.418898  1 N  d  2              86      0.418898  2 N  d  2       
    34     -0.350760  1 N  d  2              91     -0.350760  2 N  d  2       
    40     -0.038875  1 N  f  2              97      0.038875  2 N  f  2       

 Vector   40  Occ=0.000000D+00  E= 2.437303D+00
              MO Center= -7.0D-16,  2.2D-16, -1.2D-08, r^2= 1.2D+00
   Bfn.  Coefficient  Atom+Function         Bfn.  Coefficient  Atom+Function  
  ----- ------------  ---------------      ----- ------------  ---------------
    26      0.760923  1 N  d -1              83     -0.760923  2 N  d -1       
    31     -0.585191  1 N  d -1              88      0.585191  2 N  d -1       
    15      0.243095  1 N  py                72      0.243095  2 N  py         
     9      0.128770  1 N  py                66      0.128770  2 N  py         
    44      0.106406  1 N  f -1             101      0.106406  2 N  f -1       

 Vector   41  Occ=0.000000D+00  E= 2.437303D+00
              MO Center= -3.3D-15, -3.5D-16, -1.2D-08, r^2= 1.2D+00
   Bfn.  Coefficient  Atom+Function         Bfn.  Coefficient  Atom+Function  
  ----- ------------  ---------------      ----- ------------  ---------------
    28      0.760923  1 N  d  1              85     -0.760923  2 N  d  1       
    33     -0.585191  1 N  d  1              90      0.585191  2 N  d  1       
    14     -0.243095  1 N  px                71     -0.243095  2 N  px         
     8     -0.128770  1 N  px                65     -0.128770  2 N  px         
    46      0.106406  1 N  f  1             103      0.106406  2 N  f  1       

 Vector   42  Occ=0.000000D+00  E= 2.770319D+00
              MO Center= -2.8D-15, -2.0D-15,  1.7D-08, r^2= 1.4D+00
   Bfn.  Coefficient  Atom+Function         Bfn.  Coefficient  Atom+Function  
  ----- ------------  ---------------      ----- ------------  ---------------
    48      0.795647  1 N  f  3             105     -0.795647  2 N  f  3       
    42      0.288858  1 N  f -3              99     -0.288858  2 N  f -3       
    41     -0.064379  1 N  f  3              98      0.064379  2 N  f  3       

 Vector   43  Occ=0.000000D+00  E= 2.770319D+00
              MO Center=  1.8D-16,  2.1D-15,  1.7D-08, r^2= 1.4D+00
   Bfn.  Coefficient  Atom+Function         Bfn.  Coefficient  Atom+Function  
  ----- ------------  ---------------      ----- ------------  ---------------
    42      0.795647  1 N  f -3              99     -0.795647  2 N  f -3       
    48     -0.288858  1 N  f  3             105      0.288858  2 N  f  3       
    35     -0.064379  1 N  f -3              92      0.064379  2 N  f -3       

 Vector   44  Occ=0.000000D+00  E= 2.778047D+00
              MO Center=  9.8D-16, -2.0D-15, -1.3D-07, r^2= 1.2D+00
   Bfn.  Coefficient  Atom+Function         Bfn.  Coefficient  Atom+Function  
  ----- ------------  ---------------      ----- ------------  ---------------
    25      0.802790  1 N  d -2              82      0.802790  2 N  d -2       
    43     -0.387466  1 N  f -2             100      0.387465  2 N  f -2       
    30     -0.358845  1 N  d -2              87     -0.358845  2 N  d -2       
    36      0.040151  1 N  f -2              93     -0.040151  2 N  f -2       
    20     -0.025820  1 N  d -2              77     -0.025820  2 N  d -2       

 Vector   45  Occ=0.000000D+00  E= 2.778048D+00
              MO Center= -2.9D-15, -6.4D-16, -1.3D-07, r^2= 1.2D+00
   Bfn.  Coefficient  Atom+Function         Bfn.  Coefficient  Atom+Function  
  ----- ------------  ---------------      ----- ------------  ---------------
    29      0.802790  1 N  d  2              86      0.802790  2 N  d  2       
    47     -0.387465  1 N  f  2             104      0.387465  2 N  f  2       
    34     -0.358846  1 N  d  2              91     -0.358846  2 N  d  2       
    40      0.040151  1 N  f  2              97     -0.040151  2 N  f  2       
    24     -0.025819  1 N  d  2              81     -0.025819  2 N  d  2       

 Vector   46  Occ=0.000000D+00  E= 2.894100D+00
              MO Center=  1.4D-15, -1.2D-15,  1.3D-07, r^2= 1.4D+00
   Bfn.  Coefficient  Atom+Function         Bfn.  Coefficient  Atom+Function  
  ----- ------------  ---------------      ----- ------------  ---------------
    30      0.963332  1 N  d -2              87     -0.963332  2 N  d -2       
    25     -0.840871  1 N  d -2              82      0.840871  2 N  d -2       
    43      0.485632  1 N  f -2             100      0.485632  2 N  f -2       
    51      0.050609  1 N  g -2             108     -0.050609  2 N  g -2       
    36     -0.032255  1 N  f -2              93     -0.032255  2 N  f -2       

 Vector   47  Occ=0.000000D+00  E= 2.894102D+00
              MO Center=  1.4D-15,  6.2D-15,  1.3D-07, r^2= 1.4D+00
   Bfn.  Coefficient  Atom+Function         Bfn.  Coefficient  Atom+Function  
  ----- ------------  ---------------      ----- ------------  ---------------
    34      0.963332  1 N  d  2              91     -0.963332  2 N  d  2       
    29     -0.840871  1 N  d  2              86      0.840871  2 N  d  2       
    47      0.485631  1 N  f  2             104      0.485631  2 N  f  2       
    55      0.050609  1 N  g  2             112     -0.050609  2 N  g  2       
    40     -0.032254  1 N  f  2              97     -0.032254  2 N  f  2       

 Vector   48  Occ=0.000000D+00  E= 2.897464D+00
              MO Center=  3.1D-16,  6.6D-15, -4.2D-08, r^2= 1.6D+00
   Bfn.  Coefficient  Atom+Function         Bfn.  Coefficient  Atom+Function  
  ----- ------------  ---------------      ----- ------------  ---------------
    32      1.864596  1 N  d  0              89      1.864596  2 N  d  0       
     6     -1.613243  1 N  s                 63     -1.613243  2 N  s          
    16      1.319526  1 N  pz                73     -1.319526  2 N  pz         
     7      0.941635  1 N  s                 64      0.941635  2 N  s          
    27     -0.793856  1 N  d  0              84     -0.793856  2 N  d  0       

 Vector   49  Occ=0.000000D+00  E= 3.008216D+00
              MO Center=  5.8D-15, -2.5D-14, -2.0D-08, r^2= 1.9D+00
   Bfn.  Coefficient  Atom+Function         Bfn.  Coefficient  Atom+Function  
  ----- ------------  ---------------      ----- ------------  ---------------
    15      4.077712  1 N  py                72     -4.077712  2 N  py         
    31      3.380725  1 N  d -1              88      3.380725  2 N  d -1       
    44      1.497399  1 N  f -1             101     -1.497399  2 N  f -1       
    12      0.914426  1 N  py                69     -0.914426  2 N  py         
    52      0.146745  1 N  g -1             109      0.146745  2 N  g -1       

 Vector   50  Occ=0.000000D+00  E= 3.008216D+00
              MO Center= -3.2D-14,  2.7D-15, -2.0D-08, r^2= 1.9D+00
   Bfn.  Coefficient  Atom+Function         Bfn.  Coefficient  Atom+Function  
  ----- ------------  ---------------      ----- ------------  ---------------
    14      4.077712  1 N  px                71     -4.077712  2 N  px         
    33     -3.380725  1 N  d  1              90     -3.380725  2 N  d  1       
    46     -1.497399  1 N  f  1             103      1.497399  2 N  f  1       
    11      0.914426  1 N  px                68     -0.914426  2 N  px         
    54     -0.146745  1 N  g  1             111     -0.146745  2 N  g  1       

 Vector   51  Occ=0.000000D+00  E= 3.204899D+00
              MO Center= -2.6D-14,  8.4D-15,  2.2D-08, r^2= 1.8D+00
   Bfn.  Coefficient  Atom+Function         Bfn.  Coefficient  Atom+Function  
  ----- ------------  ---------------      ----- ------------  ---------------
     5      2.049247  1 N  s                 62     -2.049246  2 N  s          
     6     -1.727349  1 N  s                 63      1.727349  2 N  s          
    13      1.310385  1 N  pz                70      1.310385  2 N  pz         
    16     -1.212805  1 N  pz                73     -1.212805  2 N  pz         
    45      0.948688  1 N  f  0             102      0.948688  2 N  f  0       

 Vector   52  Occ=0.000000D+00  E= 3.317977D+00
              MO Center= -4.7D-14,  5.0D-14, -1.6D-07, r^2= 2.3D+00
   Bfn.  Coefficient  Atom+Function         Bfn.  Coefficient  Atom+Function  
  ----- ------------  ---------------      ----- ------------  ---------------
     6     20.689836  1 N  s                 63    -20.689836  2 N  s          
     7     15.868196  1 N  s                 64    -15.868195  2 N  s          
    16     14.515139  1 N  pz                73     14.515138  2 N  pz         
    32      4.744244  1 N  d  0              89     -4.744243  2 N  d  0       
     5     -4.154610  1 N  s                 62      4.154609  2 N  s          

 Vector   53  Occ=0.000000D+00  E= 3.391496D+00
              MO Center=  6.1D-15,  2.9D-14,  1.7D-07, r^2= 1.8D+00
   Bfn.  Coefficient  Atom+Function         Bfn.  Coefficient  Atom+Function  
  ----- ------------  ---------------      ----- ------------  ---------------
    16      3.630480  1 N  pz                73     -3.630484  2 N  pz         
     5     -2.776231  1 N  s                 62     -2.776232  2 N  s          
    13     -2.162578  1 N  pz                70      2.162577  2 N  pz         
    32      1.970727  1 N  d  0              89      1.970729  2 N  d  0       
    45      1.096062  1 N  f  0             102     -1.096062  2 N  f  0       

 Vector   54  Occ=0.000000D+00  E= 3.418024D+00
              MO Center=  1.4D-14, -3.7D-15,  3.0D-08, r^2= 1.5D+00
   Bfn.  Coefficient  Atom+Function         Bfn.  Coefficient  Atom+Function  
  ----- ------------  ---------------      ----- ------------  ---------------
    46      0.893880  1 N  f  1             103      0.893880  2 N  f  1       
    33      0.534718  1 N  d  1              90     -0.534719  2 N  d  1       
    11      0.526699  1 N  px                68      0.526699  2 N  px         
    28     -0.496557  1 N  d  1              85      0.496557  2 N  d  1       
    44      0.473510  1 N  f -1             101      0.473510  2 N  f -1       

 Vector   55  Occ=0.000000D+00  E= 3.418024D+00
              MO Center= -1.3D-14, -2.5D-14,  3.0D-08, r^2= 1.5D+00
   Bfn.  Coefficient  Atom+Function         Bfn.  Coefficient  Atom+Function  
  ----- ------------  ---------------      ----- ------------  ---------------
    44      0.893880  1 N  f -1             101      0.893880  2 N  f -1       
    31      0.534718  1 N  d -1              88     -0.534719  2 N  d -1       
    12     -0.526699  1 N  py                69     -0.526699  2 N  py         
    26     -0.496557  1 N  d -1              83      0.496557  2 N  d -1       
    46     -0.473510  1 N  f  1             103     -0.473510  2 N  f  1       

 Vector   56  Occ=0.000000D+00  E= 3.523421D+00
              MO Center=  1.6D-16,  3.6D-16,  6.9D-09, r^2= 1.4D+00
   Bfn.  Coefficient  Atom+Function         Bfn.  Coefficient  Atom+Function  
  ----- ------------  ---------------      ----- ------------  ---------------
    47      1.285924  1 N  f  2             104      1.285924  2 N  f  2       
    29      0.486519  1 N  d  2              86     -0.486519  2 N  d  2       
    34      0.469241  1 N  d  2              91     -0.469241  2 N  d  2       
    40     -0.078832  1 N  f  2              97     -0.078832  2 N  f  2       

 Vector   57  Occ=0.000000D+00  E= 3.523421D+00
              MO Center= -3.9D-15, -1.0D-16,  6.9D-09, r^2= 1.4D+00
   Bfn.  Coefficient  Atom+Function         Bfn.  Coefficient  Atom+Function  
  ----- ------------  ---------------      ----- ------------  ---------------
    43      1.285924  1 N  f -2             100      1.285924  2 N  f -2       
    25      0.486519  1 N  d -2              82     -0.486519  2 N  d -2       
    30      0.469241  1 N  d -2              87     -0.469241  2 N  d -2       
    36     -0.078833  1 N  f -2              93     -0.078833  2 N  f -2       

 Vector   58  Occ=0.000000D+00  E= 3.761948D+00
              MO Center=  2.6D-14, -5.5D-14, -9.3D-08, r^2= 1.4D+00
   Bfn.  Coefficient  Atom+Function         Bfn.  Coefficient  Atom+Function  
  ----- ------------  ---------------      ----- ------------  ---------------
    15      2.449156  1 N  py                72     -2.449156  2 N  py         
    14     -1.185640  1 N  px                71      1.185639  2 N  px         
    26      0.909722  1 N  d -1              83      0.909722  2 N  d -1       
    31      0.869368  1 N  d -1              88      0.869368  2 N  d -1       
    44      0.767928  1 N  f -1             101     -0.767928  2 N  f -1       

 Vector   59  Occ=0.000000D+00  E= 3.761948D+00
              MO Center=  1.7D-15, -1.5D-15, -9.3D-08, r^2= 1.4D+00
   Bfn.  Coefficient  Atom+Function         Bfn.  Coefficient  Atom+Function  
  ----- ------------  ---------------      ----- ------------  ---------------
    14      2.449156  1 N  px                71     -2.449156  2 N  px         
    15      1.185640  1 N  py                72     -1.185639  2 N  py         
    28     -0.909722  1 N  d  1              85     -0.909722  2 N  d  1       
    33     -0.869368  1 N  d  1              90     -0.869368  2 N  d  1       
    46     -0.767928  1 N  f  1             103      0.767928  2 N  f  1       

 Vector   60  Occ=0.000000D+00  E= 3.806579D+00
              MO Center=  4.7D-14, -4.9D-15,  2.1D-08, r^2= 1.1D+00
   Bfn.  Coefficient  Atom+Function         Bfn.  Coefficient  Atom+Function  
  ----- ------------  ---------------      ----- ------------  ---------------
     7      3.020095  1 N  s                 64     -3.020095  2 N  s          
     6      1.778362  1 N  s                 63     -1.778362  2 N  s          
    16      1.491271  1 N  pz                73      1.491271  2 N  pz         
     5     -1.256123  1 N  s                 62      1.256123  2 N  s          
    27     -0.928054  1 N  d  0              84      0.928054  2 N  d  0       

 Vector   61  Occ=0.000000D+00  E= 3.938131D+00
              MO Center= -5.8D-15,  9.4D-16,  9.1D-08, r^2= 1.2D+00
   Bfn.  Coefficient  Atom+Function         Bfn.  Coefficient  Atom+Function  
  ----- ------------  ---------------      ----- ------------  ---------------
    11      1.725651  1 N  px                68      1.725651  2 N  px         
    14     -1.157692  1 N  px                71     -1.157692  2 N  px         
     8      1.030023  1 N  px                65      1.030023  2 N  px         
    17      0.349709  1 N  px                74      0.349709  2 N  px         
    46      0.135162  1 N  f  1             103      0.135162  2 N  f  1       

 Vector   62  Occ=0.000000D+00  E= 3.938131D+00
              MO Center= -1.4D-15,  6.5D-15,  9.1D-08, r^2= 1.2D+00
   Bfn.  Coefficient  Atom+Function         Bfn.  Coefficient  Atom+Function  
  ----- ------------  ---------------      ----- ------------  ---------------
    12      1.725651  1 N  py                69      1.725651  2 N  py         
    15     -1.157692  1 N  py                72     -1.157692  2 N  py         
     9      1.030023  1 N  py                66      1.030023  2 N  py         
    18      0.349709  1 N  py                75      0.349709  2 N  py         
    44     -0.135162  1 N  f -1             101     -0.135162  2 N  f -1       

 Vector   63  Occ=0.000000D+00  E= 5.059261D+00
              MO Center= -2.8D-15,  3.6D-15, -2.6D-10, r^2= 9.0D-01
   Bfn.  Coefficient  Atom+Function         Bfn.  Coefficient  Atom+Function  
  ----- ------------  ---------------      ----- ------------  ---------------
     5      1.979714  1 N  s                 62      1.979714  2 N  s          
    32     -1.346164  1 N  d  0              89     -1.346164  2 N  d  0       
    16     -1.243602  1 N  pz                73      1.243602  2 N  pz         
    45     -0.886510  1 N  f  0             102      0.886510  2 N  f  0       
    10     -0.868537  1 N  pz                67      0.868537  2 N  pz         

 Vector   64  Occ=0.000000D+00  E= 5.241317D+00
              MO Center= -1.4D-14,  2.2D-14,  5.4D-09, r^2= 1.1D+00
   Bfn.  Coefficient  Atom+Function         Bfn.  Coefficient  Atom+Function  
  ----- ------------  ---------------      ----- ------------  ---------------
    12      1.993732  1 N  py                69     -1.993732  2 N  py         
    31      1.641565  1 N  d -1              88      1.641565  2 N  d -1       
    15      1.510572  1 N  py                72     -1.510572  2 N  py         
    11     -1.357182  1 N  px                68      1.357182  2 N  px         
    44      1.221513  1 N  f -1             101     -1.221513  2 N  f -1       

 Vector   65  Occ=0.000000D+00  E= 5.241317D+00
              MO Center= -1.5D-14, -1.0D-14,  5.4D-09, r^2= 1.1D+00
   Bfn.  Coefficient  Atom+Function         Bfn.  Coefficient  Atom+Function  
  ----- ------------  ---------------      ----- ------------  ---------------
    11      1.993732  1 N  px                68     -1.993732  2 N  px         
    33     -1.641565  1 N  d  1              90     -1.641565  2 N  d  1       
    14      1.510572  1 N  px                71     -1.510572  2 N  px         
    12      1.357182  1 N  py                69     -1.357182  2 N  py         
    46     -1.221513  1 N  f  1             103      1.221513  2 N  f  1       

 Vector   66  Occ=0.000000D+00  E= 6.432080D+00
              MO Center=  5.0D-16,  1.4D-15, -7.0D-09, r^2= 8.2D-01
   Bfn.  Coefficient  Atom+Function         Bfn.  Coefficient  Atom+Function  
  ----- ------------  ---------------      ----- ------------  ---------------
    50      0.453445  1 N  g -3             107     -0.453445  2 N  g -3       
    56      0.449551  1 N  g  3             113     -0.449551  2 N  g  3       
    42     -0.079213  1 N  f -3              99     -0.079213  2 N  f -3       
    48     -0.078532  1 N  f  3             105     -0.078532  2 N  f  3       
    35      0.035107  1 N  f -3              92      0.035107  2 N  f -3       

 Vector   67  Occ=0.000000D+00  E= 6.432080D+00
              MO Center= -2.3D-16,  1.4D-15, -7.0D-09, r^2= 8.2D-01
   Bfn.  Coefficient  Atom+Function         Bfn.  Coefficient  Atom+Function  
  ----- ------------  ---------------      ----- ------------  ---------------
    56     -0.453445  1 N  g  3             113      0.453445  2 N  g  3       
    50      0.449551  1 N  g -3             107     -0.449551  2 N  g -3       
    48      0.079213  1 N  f  3             105      0.079213  2 N  f  3       
    42     -0.078532  1 N  f -3              99     -0.078532  2 N  f -3       
    41     -0.035107  1 N  f  3              98     -0.035107  2 N  f  3       

 Vector   68  Occ=0.000000D+00  E= 6.766812D+00
              MO Center= -1.6D-16,  4.2D-16, -3.1D-08, r^2= 8.2D-01
   Bfn.  Coefficient  Atom+Function         Bfn.  Coefficient  Atom+Function  
  ----- ------------  ---------------      ----- ------------  ---------------
    49      0.690576  1 N  g -4             106      0.690575  2 N  g -4       

 Vector   69  Occ=0.000000D+00  E= 6.766814D+00
              MO Center= -9.7D-17,  9.1D-17, -3.1D-08, r^2= 8.2D-01
   Bfn.  Coefficient  Atom+Function         Bfn.  Coefficient  Atom+Function  
  ----- ------------  ---------------      ----- ------------  ---------------
    57      0.690576  1 N  g  4             114      0.690575  2 N  g  4       

 Vector   70  Occ=0.000000D+00  E= 6.800676D+00
              MO Center= -1.7D-16, -4.7D-16, -2.1D-09, r^2= 6.9D-01
   Bfn.  Coefficient  Atom+Function         Bfn.  Coefficient  Atom+Function  
  ----- ------------  ---------------      ----- ------------  ---------------
    51      0.558608  1 N  g -2             108      0.558608  2 N  g -2       
    36      0.286158  1 N  f -2              93     -0.286158  2 N  f -2       
    43     -0.173518  1 N  f -2             100      0.173518  2 N  f -2       
    25     -0.154160  1 N  d -2              82     -0.154160  2 N  d -2       
    30      0.079501  1 N  d -2              87      0.079501  2 N  d -2       

 Vector   71  Occ=0.000000D+00  E= 6.800681D+00
              MO Center= -7.1D-16, -6.0D-16, -2.1D-09, r^2= 6.9D-01
   Bfn.  Coefficient  Atom+Function         Bfn.  Coefficient  Atom+Function  
  ----- ------------  ---------------      ----- ------------  ---------------
    55      0.558608  1 N  g  2             112      0.558608  2 N  g  2       
    40      0.286158  1 N  f  2              97     -0.286158  2 N  f  2       
    47     -0.173518  1 N  f  2             104      0.173518  2 N  f  2       
    29     -0.154159  1 N  d  2              86     -0.154159  2 N  d  2       
    34      0.079501  1 N  d  2              91      0.079501  2 N  d  2       

 Vector   72  Occ=0.000000D+00  E= 6.856839D+00
              MO Center= -1.9D-14, -3.3D-15, -1.3D-08, r^2= 1.4D+00
   Bfn.  Coefficient  Atom+Function         Bfn.  Coefficient  Atom+Function  
  ----- ------------  ---------------      ----- ------------  ---------------
     6     21.925709  1 N  s                 63    -21.925709  2 N  s          
     7     11.364132  1 N  s                 64    -11.364132  2 N  s          
    16     11.062773  1 N  pz                73     11.062773  2 N  pz         
    13      9.490761  1 N  pz                70      9.490761  2 N  pz         
    32      4.276573  1 N  d  0              89     -4.276573  2 N  d  0       

 Vector   73  Occ=0.000000D+00  E= 7.196419D+00
              MO Center=  9.4D-16, -4.0D-17,  3.1D-08, r^2= 8.5D-01
   Bfn.  Coefficient  Atom+Function         Bfn.  Coefficient  Atom+Function  
  ----- ------------  ---------------      ----- ------------  ---------------
    49      0.724885  1 N  g -4             106     -0.724885  2 N  g -4       

 Vector   74  Occ=0.000000D+00  E= 7.196421D+00
              MO Center=  1.0D-16, -7.6D-17,  3.1D-08, r^2= 8.5D-01
   Bfn.  Coefficient  Atom+Function         Bfn.  Coefficient  Atom+Function  
  ----- ------------  ---------------      ----- ------------  ---------------
    57      0.724885  1 N  g  4             114     -0.724885  2 N  g  4       

 Vector   75  Occ=0.000000D+00  E= 7.197140D+00
              MO Center= -2.8D-16, -1.3D-15, -3.4D-09, r^2= 5.8D-01
   Bfn.  Coefficient  Atom+Function         Bfn.  Coefficient  Atom+Function  
  ----- ------------  ---------------      ----- ------------  ---------------
    54      0.456099  1 N  g  1             111     -0.456099  2 N  g  1       
    39      0.396807  1 N  f  1              96      0.396807  2 N  f  1       
    28     -0.380279  1 N  d  1              85      0.380279  2 N  d  1       
    23      0.287657  1 N  d  1              80     -0.287657  2 N  d  1       
    33      0.220367  1 N  d  1              90     -0.220367  2 N  d  1       

 Vector   76  Occ=0.000000D+00  E= 7.197140D+00
              MO Center= -1.4D-17,  3.2D-15, -3.4D-09, r^2= 5.8D-01
   Bfn.  Coefficient  Atom+Function         Bfn.  Coefficient  Atom+Function  
  ----- ------------  ---------------      ----- ------------  ---------------
    52      0.456099  1 N  g -1             109     -0.456099  2 N  g -1       
    37      0.396807  1 N  f -1              94      0.396807  2 N  f -1       
    26     -0.380279  1 N  d -1              83      0.380279  2 N  d -1       
    21      0.287657  1 N  d -1              78     -0.287657  2 N  d -1       
    31      0.220367  1 N  d -1              88     -0.220367  2 N  d -1       

 Vector   77  Occ=0.000000D+00  E= 7.273482D+00
              MO Center= -4.4D-16, -3.0D-15,  6.6D-09, r^2= 6.9D-01
   Bfn.  Coefficient  Atom+Function         Bfn.  Coefficient  Atom+Function  
  ----- ------------  ---------------      ----- ------------  ---------------
     5      1.207592  1 N  s                 62      1.207593  2 N  s          
     4     -0.587517  1 N  s                 61     -0.587517  2 N  s          
    53     -0.535388  1 N  g  0             110     -0.535388  2 N  g  0       
    10     -0.491343  1 N  pz                67      0.491343  2 N  pz         
    32     -0.483216  1 N  d  0              89     -0.483216  2 N  d  0       

 Vector   78  Occ=0.000000D+00  E= 7.920241D+00
              MO Center= -2.8D-15,  7.2D-17, -2.4D-08, r^2= 1.2D+00
   Bfn.  Coefficient  Atom+Function         Bfn.  Coefficient  Atom+Function  
  ----- ------------  ---------------      ----- ------------  ---------------
    14      1.597202  1 N  px                71     -1.597202  2 N  px         
    15     -1.466891  1 N  py                72      1.466891  2 N  py         
    33     -1.444091  1 N  d  1              90     -1.444091  2 N  d  1       
    11      1.403815  1 N  px                68     -1.403815  2 N  px         
    31     -1.326272  1 N  d -1              88     -1.326272  2 N  d -1       

 Vector   79  Occ=0.000000D+00  E= 7.920241D+00
              MO Center=  5.1D-15,  2.6D-15, -2.4D-08, r^2= 1.2D+00
   Bfn.  Coefficient  Atom+Function         Bfn.  Coefficient  Atom+Function  
  ----- ------------  ---------------      ----- ------------  ---------------
    15      1.597202  1 N  py                72     -1.597202  2 N  py         
    14      1.466891  1 N  px                71     -1.466891  2 N  px         
    31      1.444091  1 N  d -1              88      1.444091  2 N  d -1       
    12      1.403815  1 N  py                69     -1.403815  2 N  py         
    33     -1.326272  1 N  d  1              90     -1.326272  2 N  d  1       

 Vector   80  Occ=0.000000D+00  E= 8.053842D+00
              MO Center= -1.1D-15, -9.8D-16,  7.3D-09, r^2= 8.6D-01
   Bfn.  Coefficient  Atom+Function         Bfn.  Coefficient  Atom+Function  
  ----- ------------  ---------------      ----- ------------  ---------------
    56      0.817708  1 N  g  3             113      0.817708  2 N  g  3       
    48      0.146937  1 N  f  3             105     -0.146937  2 N  f  3       
    50     -0.134369  1 N  g -3             107     -0.134369  2 N  g -3       
    41      0.068268  1 N  f  3              98     -0.068268  2 N  f  3       

 Vector   81  Occ=0.000000D+00  E= 8.053842D+00
              MO Center= -4.2D-16,  1.5D-16,  7.3D-09, r^2= 8.6D-01
   Bfn.  Coefficient  Atom+Function         Bfn.  Coefficient  Atom+Function  
  ----- ------------  ---------------      ----- ------------  ---------------
    50      0.817708  1 N  g -3             107      0.817708  2 N  g -3       
    42      0.146937  1 N  f -3              99     -0.146937  2 N  f -3       
    56      0.134369  1 N  g  3             113      0.134369  2 N  g  3       
    35      0.068268  1 N  f -3              92     -0.068268  2 N  f -3       

 Vector   82  Occ=0.000000D+00  E= 8.456749D+00
              MO Center= -8.3D-16, -2.5D-16, -9.4D-08, r^2= 6.9D-01
   Bfn.  Coefficient  Atom+Function         Bfn.  Coefficient  Atom+Function  
  ----- ------------  ---------------      ----- ------------  ---------------
    35      0.821748  1 N  f -3              92      0.821748  2 N  f -3       
    42     -0.341375  1 N  f -3              99     -0.341375  2 N  f -3       
    41      0.062218  1 N  f  3              98      0.062218  2 N  f  3       
    50     -0.036009  1 N  g -3             107      0.036009  2 N  g -3       
    48     -0.025847  1 N  f  3             105     -0.025847  2 N  f  3       

 Vector   83  Occ=0.000000D+00  E= 8.456749D+00
              MO Center= -1.1D-16, -2.2D-15, -9.4D-08, r^2= 6.9D-01
   Bfn.  Coefficient  Atom+Function         Bfn.  Coefficient  Atom+Function  
  ----- ------------  ---------------      ----- ------------  ---------------
    41      0.821748  1 N  f  3              98      0.821748  2 N  f  3       
    48     -0.341375  1 N  f  3             105     -0.341375  2 N  f  3       
    35     -0.062218  1 N  f -3              92     -0.062218  2 N  f -3       
    56     -0.036009  1 N  g  3             113      0.036009  2 N  g  3       
    42      0.025847  1 N  f -3              99      0.025847  2 N  f -3       

 Vector   84  Occ=0.000000D+00  E= 8.546586D+00
              MO Center=  4.7D-15, -7.8D-16, -1.1D-07, r^2= 1.1D+00
   Bfn.  Coefficient  Atom+Function         Bfn.  Coefficient  Atom+Function  
  ----- ------------  ---------------      ----- ------------  ---------------
    47      0.930854  1 N  f  2             104      0.930854  2 N  f  2       
    55      0.741809  1 N  g  2             112     -0.741809  2 N  g  2       
    34      0.585778  1 N  d  2              91     -0.585778  2 N  d  2       
    40     -0.442723  1 N  f  2              97     -0.442723  2 N  f  2       
    24      0.416065  1 N  d  2              81     -0.416065  2 N  d  2       

 Vector   85  Occ=0.000000D+00  E= 8.546591D+00
              MO Center= -4.7D-16,  9.6D-16, -1.1D-07, r^2= 1.1D+00
   Bfn.  Coefficient  Atom+Function         Bfn.  Coefficient  Atom+Function  
  ----- ------------  ---------------      ----- ------------  ---------------
    43      0.930853  1 N  f -2             100      0.930853  2 N  f -2       
    51      0.741813  1 N  g -2             108     -0.741813  2 N  g -2       
    30      0.585777  1 N  d -2              87     -0.585777  2 N  d -2       
    36     -0.442718  1 N  f -2              93     -0.442718  2 N  f -2       
    20      0.416066  1 N  d -2              77     -0.416065  2 N  d -2       

 Vector   86  Occ=0.000000D+00  E= 8.638961D+00
              MO Center=  1.5D-15, -5.9D-16, -3.1D-08, r^2= 9.6D-01
   Bfn.  Coefficient  Atom+Function         Bfn.  Coefficient  Atom+Function  
  ----- ------------  ---------------      ----- ------------  ---------------
    16      1.544211  1 N  pz                73     -1.544211  2 N  pz         
    32      1.194176  1 N  d  0              89      1.194176  2 N  d  0       
     5     -1.115628  1 N  s                 62     -1.115629  2 N  s          
    45      0.938794  1 N  f  0             102     -0.938794  2 N  f  0       
    38     -0.782065  1 N  f  0              95      0.782065  2 N  f  0       

 Vector   87  Occ=0.000000D+00  E= 8.665969D+00
              MO Center= -1.2D-15,  6.6D-16,  9.4D-08, r^2= 7.3D-01
   Bfn.  Coefficient  Atom+Function         Bfn.  Coefficient  Atom+Function  
  ----- ------------  ---------------      ----- ------------  ---------------
    35      0.830309  1 N  f -3              92     -0.830309  2 N  f -3       
    42     -0.467834  1 N  f -3              99      0.467834  2 N  f -3       
    41     -0.139664  1 N  f  3              98      0.139664  2 N  f  3       
    50     -0.096930  1 N  g -3             107     -0.096930  2 N  g -3       
    48      0.078693  1 N  f  3             105     -0.078693  2 N  f  3       

 Vector   88  Occ=0.000000D+00  E= 8.665969D+00
              MO Center= -7.1D-15, -3.7D-16,  9.4D-08, r^2= 7.3D-01
   Bfn.  Coefficient  Atom+Function         Bfn.  Coefficient  Atom+Function  
  ----- ------------  ---------------      ----- ------------  ---------------
    41      0.830309  1 N  f  3              98     -0.830309  2 N  f  3       
    48     -0.467834  1 N  f  3             105      0.467834  2 N  f  3       
    35      0.139664  1 N  f -3              92     -0.139664  2 N  f -3       
    56     -0.096930  1 N  g  3             113     -0.096930  2 N  g  3       
    42     -0.078693  1 N  f -3              99      0.078693  2 N  f -3       

 Vector   89  Occ=0.000000D+00  E= 8.715496D+00
              MO Center=  3.0D-14,  1.6D-14,  7.3D-08, r^2= 8.3D-01
   Bfn.  Coefficient  Atom+Function         Bfn.  Coefficient  Atom+Function  
  ----- ------------  ---------------      ----- ------------  ---------------
    40      0.790951  1 N  f  2              97     -0.790951  2 N  f  2       
    47     -0.353484  1 N  f  2             104      0.353484  2 N  f  2       
    55     -0.317008  1 N  g  2             112     -0.317008  2 N  g  2       
    24      0.054239  1 N  d  2              81      0.054238  2 N  d  2       
    29      0.052908  1 N  d  2              86      0.052908  2 N  d  2       

 Vector   90  Occ=0.000000D+00  E= 8.715503D+00
              MO Center= -2.7D-15,  4.8D-15,  7.3D-08, r^2= 8.3D-01
   Bfn.  Coefficient  Atom+Function         Bfn.  Coefficient  Atom+Function  
  ----- ------------  ---------------      ----- ------------  ---------------
    36      0.790950  1 N  f -2              93     -0.790950  2 N  f -2       
    43     -0.353484  1 N  f -2             100      0.353484  2 N  f -2       
    51     -0.317008  1 N  g -2             108     -0.317008  2 N  g -2       
    20      0.054250  1 N  d -2              77      0.054250  2 N  d -2       
    25      0.052899  1 N  d -2              82      0.052899  2 N  d -2       

 Vector   91  Occ=0.000000D+00  E= 8.817099D+00
              MO Center= -1.5D-14,  4.2D-15,  2.4D-08, r^2= 9.9D-01
   Bfn.  Coefficient  Atom+Function         Bfn.  Coefficient  Atom+Function  
  ----- ------------  ---------------      ----- ------------  ---------------
    39      0.609168  1 N  f  1              46     -0.608483  1 N  f  1       
    96      0.609168  2 N  f  1             103     -0.608483  2 N  f  1       
    28      0.530058  1 N  d  1              85     -0.530058  2 N  d  1       
    23     -0.476007  1 N  d  1              80      0.476007  2 N  d  1       
    33     -0.396800  1 N  d  1              90      0.396800  2 N  d  1       

 Vector   92  Occ=0.000000D+00  E= 8.817099D+00
              MO Center= -9.3D-15, -2.0D-14,  2.4D-08, r^2= 9.9D-01
   Bfn.  Coefficient  Atom+Function         Bfn.  Coefficient  Atom+Function  
  ----- ------------  ---------------      ----- ------------  ---------------
    37      0.609168  1 N  f -1              44     -0.608483  1 N  f -1       
    94      0.609168  2 N  f -1             101     -0.608483  2 N  f -1       
    26      0.530058  1 N  d -1              83     -0.530058  2 N  d -1       
    21     -0.476007  1 N  d -1              78      0.476007  2 N  d -1       
    31     -0.396800  1 N  d -1              88      0.396800  2 N  d -1       

 Vector   93  Occ=0.000000D+00  E= 8.877506D+00
              MO Center= -3.6D-15,  3.7D-16,  3.4D-08, r^2= 1.1D+00
   Bfn.  Coefficient  Atom+Function         Bfn.  Coefficient  Atom+Function  
  ----- ------------  ---------------      ----- ------------  ---------------
     6      3.551515  1 N  s                 63     -3.551515  2 N  s          
    13      2.533895  1 N  pz                70      2.533895  2 N  pz         
     7      2.186900  1 N  s                 64     -2.186900  2 N  s          
    16      1.796259  1 N  pz                73      1.796260  2 N  pz         
    27      1.514492  1 N  d  0              84     -1.514492  2 N  d  0       

 Vector   94  Occ=0.000000D+00  E= 9.000751D+00
              MO Center=  2.8D-16,  6.0D-16, -4.9D-08, r^2= 6.3D-01
   Bfn.  Coefficient  Atom+Function         Bfn.  Coefficient  Atom+Function  
  ----- ------------  ---------------      ----- ------------  ---------------
    24      0.943840  1 N  d  2              81      0.943840  2 N  d  2       
    29     -0.734367  1 N  d  2              86     -0.734367  2 N  d  2       
    34      0.235208  1 N  d  2              91      0.235208  2 N  d  2       
    47      0.057182  1 N  f  2             104     -0.057182  2 N  f  2       
    40     -0.051421  1 N  f  2              97      0.051421  2 N  f  2       

 Vector   95  Occ=0.000000D+00  E= 9.000753D+00
              MO Center= -8.3D-16,  6.5D-15, -4.9D-08, r^2= 6.3D-01
   Bfn.  Coefficient  Atom+Function         Bfn.  Coefficient  Atom+Function  
  ----- ------------  ---------------      ----- ------------  ---------------
    20      0.943839  1 N  d -2              77      0.943839  2 N  d -2       
    25     -0.734367  1 N  d -2              82     -0.734367  2 N  d -2       
    30      0.235208  1 N  d -2              87      0.235208  2 N  d -2       
    43      0.057186  1 N  f -2             100     -0.057186  2 N  f -2       
    36     -0.051430  1 N  f -2              93      0.051430  2 N  f -2       

 Vector   96  Occ=0.000000D+00  E= 9.099246D+00
              MO Center= -2.0D-15,  1.6D-15,  8.4D-08, r^2= 5.8D-01
   Bfn.  Coefficient  Atom+Function         Bfn.  Coefficient  Atom+Function  
  ----- ------------  ---------------      ----- ------------  ---------------
    36      0.653067  1 N  f -2              93      0.653067  2 N  f -2       
    20      0.643067  1 N  d -2              77     -0.643067  2 N  d -2       
    25     -0.560951  1 N  d -2              82      0.560951  2 N  d -2       
    43     -0.508458  1 N  f -2             100     -0.508458  2 N  f -2       
    51      0.058883  1 N  g -2             108     -0.058883  2 N  g -2       

 Vector   97  Occ=0.000000D+00  E= 9.099246D+00
              MO Center=  1.9D-15,  1.9D-15,  8.4D-08, r^2= 5.8D-01
   Bfn.  Coefficient  Atom+Function         Bfn.  Coefficient  Atom+Function  
  ----- ------------  ---------------      ----- ------------  ---------------
    40      0.653065  1 N  f  2              97      0.653065  2 N  f  2       
    24      0.643070  1 N  d  2              81     -0.643070  2 N  d  2       
    29     -0.560952  1 N  d  2              86      0.560952  2 N  d  2       
    47     -0.508454  1 N  f  2             104     -0.508454  2 N  f  2       
    55      0.058886  1 N  g  2             112     -0.058886  2 N  g  2       

 Vector   98  Occ=0.000000D+00  E= 9.844156D+00
              MO Center=  4.0D-15, -7.2D-15, -2.2D-08, r^2= 6.3D-01
   Bfn.  Coefficient  Atom+Function         Bfn.  Coefficient  Atom+Function  
  ----- ------------  ---------------      ----- ------------  ---------------
    15      1.306910  1 N  py                72     -1.306910  2 N  py         
    26      1.173121  1 N  d -1              83      1.173121  2 N  d -1       
    31      0.861625  1 N  d -1              88      0.861625  2 N  d -1       
    44      0.851631  1 N  f -1             101     -0.851631  2 N  f -1       
    12      0.800062  1 N  py                69     -0.800062  2 N  py         

 Vector   99  Occ=0.000000D+00  E= 9.844156D+00
              MO Center= -5.6D-15,  3.1D-15, -2.2D-08, r^2= 6.3D-01
   Bfn.  Coefficient  Atom+Function         Bfn.  Coefficient  Atom+Function  
  ----- ------------  ---------------      ----- ------------  ---------------
    14      1.306910  1 N  px                71     -1.306910  2 N  px         
    28     -1.173121  1 N  d  1              85     -1.173121  2 N  d  1       
    33     -0.861625  1 N  d  1              90     -0.861625  2 N  d  1       
    46     -0.851631  1 N  f  1             103      0.851631  2 N  f  1       
    11      0.800062  1 N  px                68     -0.800062  2 N  px         

 Vector  100  Occ=0.000000D+00  E= 9.936128D+00
              MO Center= -7.8D-15, -3.5D-14, -2.8D-07, r^2= 7.7D-01
   Bfn.  Coefficient  Atom+Function         Bfn.  Coefficient  Atom+Function  
  ----- ------------  ---------------      ----- ------------  ---------------
     5      4.002305  1 N  s                 62      4.002302  2 N  s          
     4     -3.253454  1 N  s                 61     -3.253452  2 N  s          
    16     -1.480688  1 N  pz                73      1.480683  2 N  pz         
     3      1.471793  1 N  s                 60      1.471792  2 N  s          
    32     -1.081501  1 N  d  0              89     -1.081499  2 N  d  0       

 Vector  101  Occ=0.000000D+00  E= 9.969460D+00
              MO Center=  5.6D-15,  4.8D-15,  2.7D-07, r^2= 7.2D-01
   Bfn.  Coefficient  Atom+Function         Bfn.  Coefficient  Atom+Function  
  ----- ------------  ---------------      ----- ------------  ---------------
     6     11.834178  1 N  s                 63    -11.834179  2 N  s          
    16      6.225739  1 N  pz                73      6.225740  2 N  pz         
     7      5.801415  1 N  s                 64     -5.801415  2 N  s          
    13      3.700621  1 N  pz                70      3.700621  2 N  pz         
     5     -3.392695  1 N  s                 62      3.392698  2 N  s          

 Vector  102  Occ=0.000000D+00  E= 1.018942D+01
              MO Center= -5.2D-15,  2.3D-16,  1.0D-08, r^2= 7.3D-01
   Bfn.  Coefficient  Atom+Function         Bfn.  Coefficient  Atom+Function  
  ----- ------------  ---------------      ----- ------------  ---------------
     6     12.721785  1 N  s                 63    -12.721785  2 N  s          
    16      6.125873  1 N  pz                73      6.125873  2 N  pz         
     7      5.077586  1 N  s                 64     -5.077586  2 N  s          
    13      4.991766  1 N  pz                70      4.991766  2 N  pz         
    27      2.592101  1 N  d  0              84     -2.592101  2 N  d  0       

 Vector  103  Occ=0.000000D+00  E= 1.019570D+01
              MO Center= -5.3D-15, -4.1D-17,  7.9D-09, r^2= 7.4D-01
   Bfn.  Coefficient  Atom+Function         Bfn.  Coefficient  Atom+Function  
  ----- ------------  ---------------      ----- ------------  ---------------
    25      0.890987  1 N  d -2              82     -0.890988  2 N  d -2       
    51      0.885351  1 N  g -2             108     -0.885351  2 N  g -2       
    20     -0.616297  1 N  d -2              77      0.616297  2 N  d -2       
    43      0.534066  1 N  f -2             100      0.534066  2 N  f -2       
    36      0.396298  1 N  f -2              93      0.396298  2 N  f -2       

 Vector  104  Occ=0.000000D+00  E= 1.019571D+01
              MO Center=  5.4D-15,  4.2D-16,  7.9D-09, r^2= 7.4D-01
   Bfn.  Coefficient  Atom+Function         Bfn.  Coefficient  Atom+Function  
  ----- ------------  ---------------      ----- ------------  ---------------
    29      0.890987  1 N  d  2              86     -0.890987  2 N  d  2       
    55      0.885354  1 N  g  2             112     -0.885354  2 N  g  2       
    24     -0.616295  1 N  d  2              81      0.616295  2 N  d  2       
    47      0.534069  1 N  f  2             104      0.534069  2 N  f  2       
    40      0.396297  1 N  f  2              97      0.396297  2 N  f  2       

 Vector  105  Occ=0.000000D+00  E= 1.025816D+01
              MO Center=  2.1D-15,  1.9D-14,  2.5D-08, r^2= 7.2D-01
   Bfn.  Coefficient  Atom+Function         Bfn.  Coefficient  Atom+Function  
  ----- ------------  ---------------      ----- ------------  ---------------
    21      0.756347  1 N  d -1              78     -0.756347  2 N  d -1       
    52     -0.576773  1 N  g -1             109      0.576773  2 N  g -1       
    44     -0.531931  1 N  f -1             101     -0.531931  2 N  f -1       
    12      0.433022  1 N  py                69      0.433021  2 N  py         
    37      0.415805  1 N  f -1              94      0.415805  2 N  f -1       

 Vector  106  Occ=0.000000D+00  E= 1.025816D+01
              MO Center=  1.3D-14, -1.1D-15,  2.5D-08, r^2= 7.2D-01
   Bfn.  Coefficient  Atom+Function         Bfn.  Coefficient  Atom+Function  
  ----- ------------  ---------------      ----- ------------  ---------------
    23      0.756347  1 N  d  1              80     -0.756347  2 N  d  1       
    54     -0.576773  1 N  g  1             111      0.576773  2 N  g  1       
    46     -0.531931  1 N  f  1             103     -0.531931  2 N  f  1       
    11     -0.433022  1 N  px                68     -0.433021  2 N  px         
    39      0.415805  1 N  f  1              96      0.415805  2 N  f  1       

 Vector  107  Occ=0.000000D+00  E= 1.156531D+01
              MO Center= -2.0D-15, -8.8D-15,  9.9D-09, r^2= 6.1D-01
   Bfn.  Coefficient  Atom+Function         Bfn.  Coefficient  Atom+Function  
  ----- ------------  ---------------      ----- ------------  ---------------
     5      2.165137  1 N  s                 62      2.165137  2 N  s          
    16     -1.100685  1 N  pz                22      1.106164  1 N  d  0       
    73      1.100685  2 N  pz                79      1.106164  2 N  d  0       
    27     -1.079069  1 N  d  0              84     -1.079069  2 N  d  0       
    10     -0.739930  1 N  pz                67      0.739930  2 N  pz         

 Vector  108  Occ=0.000000D+00  E= 1.294606D+01
              MO Center=  4.2D-16, -2.1D-15,  3.7D-09, r^2= 7.4D-01
   Bfn.  Coefficient  Atom+Function         Bfn.  Coefficient  Atom+Function  
  ----- ------------  ---------------      ----- ------------  ---------------
    28     -2.665247  1 N  d  1              85     -2.665247  2 N  d  1       
    11      2.455623  1 N  px                68     -2.455623  2 N  px         
    26     -1.512072  1 N  d -1              83     -1.512072  2 N  d -1       
    12     -1.393146  1 N  py                69      1.393146  2 N  py         
    46     -1.318761  1 N  f  1             103      1.318761  2 N  f  1       

 Vector  109  Occ=0.000000D+00  E= 1.294606D+01
              MO Center=  4.8D-15,  6.5D-15,  3.7D-09, r^2= 7.4D-01
   Bfn.  Coefficient  Atom+Function         Bfn.  Coefficient  Atom+Function  
  ----- ------------  ---------------      ----- ------------  ---------------
    26      2.665247  1 N  d -1              83      2.665247  2 N  d -1       
    12      2.455623  1 N  py                69     -2.455623  2 N  py         
    28     -1.512072  1 N  d  1              85     -1.512072  2 N  d  1       
    11      1.393146  1 N  px                68     -1.393146  2 N  px         
    44      1.318761  1 N  f -1             101     -1.318761  2 N  f -1       

 Vector  110  Occ=0.000000D+00  E= 1.517579D+01
              MO Center= -1.3D-14,  2.3D-15,  2.7D-09, r^2= 8.7D-01
   Bfn.  Coefficient  Atom+Function         Bfn.  Coefficient  Atom+Function  
  ----- ------------  ---------------      ----- ------------  ---------------
     6     20.897844  1 N  s                 63    -20.897844  2 N  s          
    13     12.910976  1 N  pz                70     12.910976  2 N  pz         
    16      8.412187  1 N  pz                73      8.412187  2 N  pz         
     7      7.862939  1 N  s                 64     -7.862939  2 N  s          
    27      6.063455  1 N  d  0              84     -6.063455  2 N  d  0       

 Vector  111  Occ=0.000000D+00  E= 3.657367D+01
              MO Center=  1.7D-16, -3.5D-15, -1.7D-08, r^2= 4.2D-01
   Bfn.  Coefficient  Atom+Function         Bfn.  Coefficient  Atom+Function  
  ----- ------------  ---------------      ----- ------------  ---------------
     3      3.429375  1 N  s                 60      3.429375  2 N  s          
     4     -3.049921  1 N  s                 61     -3.049921  2 N  s          
     5      1.869876  1 N  s                 62      1.869876  2 N  s          
     2     -1.453854  1 N  s                 59     -1.453853  2 N  s          
     6     -0.579221  1 N  s                 63     -0.579221  2 N  s          

 Vector  112  Occ=0.000000D+00  E= 3.846383D+01
              MO Center= -2.8D-15,  8.9D-16,  1.7D-08, r^2= 4.6D-01
   Bfn.  Coefficient  Atom+Function         Bfn.  Coefficient  Atom+Function  
  ----- ------------  ---------------      ----- ------------  ---------------
     4     -4.097509  1 N  s                 61      4.097509  2 N  s          
     3      3.868341  1 N  s                 60     -3.868341  2 N  s          
    13      3.389730  1 N  pz                70      3.389730  2 N  pz         
     6      2.618567  1 N  s                 63     -2.618567  2 N  s          
     5      2.579210  1 N  s                 62     -2.579211  2 N  s          

 Vector  113  Occ=0.000000D+00  E= 1.963781D+02
              MO Center=  5.8D-17,  1.8D-15, -1.8D-08, r^2= 3.3D-01
   Bfn.  Coefficient  Atom+Function         Bfn.  Coefficient  Atom+Function  
  ----- ------------  ---------------      ----- ------------  ---------------
     2      6.098590  1 N  s                 59      6.098589  2 N  s          
     1     -5.354777  1 N  s                 58     -5.354777  2 N  s          
     3     -1.663871  1 N  s                 60     -1.663871  2 N  s          
     4      1.356206  1 N  s                 61      1.356206  2 N  s          
     5     -0.818154  1 N  s                 62     -0.818154  2 N  s          

 Vector  114  Occ=0.000000D+00  E= 1.984783D+02
              MO Center= -1.7D-15, -2.4D-16,  1.8D-08, r^2= 3.3D-01
   Bfn.  Coefficient  Atom+Function         Bfn.  Coefficient  Atom+Function  
  ----- ------------  ---------------      ----- ------------  ---------------
     2      6.194940  1 N  s                 59     -6.194940  2 N  s          
     1     -5.395789  1 N  s                 58      5.395789  2 N  s          
     3     -1.902903  1 N  s                 60      1.902903  2 N  s          
     4      1.807319  1 N  s                 61     -1.807319  2 N  s          
    13     -1.287868  1 N  pz                70     -1.287868  2 N  pz         


 center of mass
 --------------
 x =   0.00000000 y =   0.00000000 z =   0.00000000

 moments of inertia (a.u.)
 ------------------
          29.705983232517           0.000000000000           0.000000000000
           0.000000000000          29.705983232517           0.000000000000
           0.000000000000           0.000000000000           0.000000000000

     Multipole analysis of the density
     ---------------------------------

     L   x y z        total         alpha         beta         nuclear
     -   - - -        -----         -----         ----         -------
     0   0 0 0     -0.000000     -7.000000     -7.000000     14.000000

     1   1 0 0      0.000000      0.000000      0.000000      0.000000
     1   0 1 0     -0.000000     -0.000000     -0.000000      0.000000
     1   0 0 1      0.000000      0.000000      0.000000      0.000000

     2   2 0 0     -7.534951     -3.767475     -3.767475      0.000000
     2   1 1 0      0.000000      0.000000      0.000000      0.000000
     2   1 0 1      0.000000      0.000000      0.000000      0.000000
     2   0 2 0     -7.534951     -3.767475     -3.767475      0.000000
     2   0 1 1     -0.000000     -0.000000     -0.000000      0.000000
     2   0 0 2     -8.716238    -11.782987    -11.782987     14.849735

  
                             ***********************
                             ***        GW       ***
                             ***********************
  

                 Memory Information
                 ------------------
          Available GA per process is           400.0 MBs
          Available stack per process is        200.0 MBs
          Available heap per process is         199.9 MBs

          Peak memory in Initialization
              Peak GA per process is                  0.3 MBs
              Peak stack per process is               0.2 MBs
              Peak heap per process is                0.5 MBs
              Memory not in MA per process            0.0 MBs

          Peak memory in AFF Calculation
              Peak GA per process is                  1.2 MBs
              Peak stack per process is               4.3 MBs
              Peak heap per process is                0.0 MBs
              Memory not in MA per process            4.3 MBs

          Computing 2-center integrals
          Computing Inverse Cholesky factor
          Computing 3-center integrals
          Computing V_xc ... 
  avail0,avail1,avail0-avail1                  8868                 8868                    0
  avail0,avail1,avail0-avail1                  8868                 8868                    0
  avail0,avail1,avail0-avail1                  8868                 8868                    0
  avail0,avail1,avail0-avail1                  8868                 8868                    0

 Grid_pts file          = ./n2.gridpts.0
 Record size in doubles =  12289        No. of grid_pts per rec  =   3070
 Max. records in memory =      5        Max. recs in file   =       709

          Computing Sigma_x
          Computing RPA polarizability
          Solving quasiparticle equations

                  Alpha Orbitals
          State     Energy (eV)     Error (eV)
          -----------------------------------
@GW         7        -15.116           0.000

     GW Timing Statistics
   ------------------------
   Init.   :          0.2s
     ERIs  :          0.2s
     Distr.:          0.0s
     Vxc   :          0.3s
   Sigma_x :          0.0s
   RPA     :          0.1s
   Wmn     :          0.0s
   Sigma_c :          0.0s
   GW total:          0.9s


 Task  times  cpu:        2.6s     wall:        2.6s


                                NWChem Input Module
                                -------------------


 Summary of allocated global arrays
-----------------------------------
  No active global arrays


MA_summarize_allocated_blocks: starting scan ...
MA_summarize_allocated_blocks: scan completed: 0 heap blocks, 0 stack blocks
MA usage statistics:

	allocation statistics:
					      heap	     stack
					      ----	     -----
	current number of blocks	         0	         0
	maximum number of blocks	        28	        66
	current total bytes		         0	         0
	maximum total bytes		  32158016	  43161240
	maximum total K-bytes		     32159	     43162
	maximum total M-bytes		        33	        44


                                     CITATION
                                     --------
                Please cite the following reference when publishing
                           results obtained with NWChem:

          E. Apra, E. J. Bylaska, W. A. de Jong, N. Govind, K. Kowalski,
       T. P. Straatsma, M. Valiev, H. J. J. van Dam, Y. Alexeev, J. Anchell,
       V. Anisimov, F. W. Aquino, R. Atta-Fynn, J. Autschbach, N. P. Bauman,
     J. C. Becca, D. E. Bernholdt, K. Bhaskaran-Nair, S. Bogatko, P. Borowski,
         J. Boschen, J. Brabec, A. Bruner, E. Cauet, Y. Chen, G. N. Chuev,
      C. J. Cramer, J. Daily, M. J. O. Deegan, T. H. Dunning Jr., M. Dupuis,
   K. G. Dyall, G. I. Fann, S. A. Fischer, A. Fonari, H. Fruchtl, L. Gagliardi,
      J. Garza, N. Gawande, S. Ghosh, K. Glaesemann, A. W. Gotz, J. Hammond,
       V. Helms, E. D. Hermes, K. Hirao, S. Hirata, M. Jacquelin, L. Jensen,
   B. G. Johnson, H. Jonsson, R. A. Kendall, M. Klemm, R. Kobayashi, V. Konkov,
      S. Krishnamoorthy, M. Krishnan, Z. Lin, R. D. Lins, R. J. Littlefield,
      A. J. Logsdail, K. Lopata, W. Ma, A. V. Marenich, J. Martin del Campo,
   D. Mejia-Rodriguez, J. E. Moore, J. M. Mullin, T. Nakajima, D. R. Nascimento,
    J. A. Nichols, P. J. Nichols, J. Nieplocha, A. Otero-de-la-Roza, B. Palmer,
    A. Panyala, T. Pirojsirikul, B. Peng, R. Peverati, J. Pittner, L. Pollack,
   R. M. Richard, P. Sadayappan, G. C. Schatz, W. A. Shelton, D. W. Silverstein,
   D. M. A. Smith, T. A. Soares, D. Song, M. Swart, H. L. Taylor, G. S. Thomas,
            V. Tipparaju, D. G. Truhlar, K. Tsemekhman, T. Van Voorhis,
      A. Vazquez-Mayagoitia, P. Verma, O. Villa, A. Vishnu, K. D. Vogiatzis,
        D. Wang, J. H. Weare, M. J. Williamson, T. L. Windus, K. Wolinski,
        A. T. Wong, Q. Wu, C. Yang, Q. Yu, M. Zacharias, Z. Zhang, Y. Zhao,
                                and R. J. Harrison
                        "NWChem: Past, present, and future
                         J. Chem. Phys. 152, 184102 (2020)
                               doi:10.1063/5.0004997

                                      AUTHORS
                                      -------
  E. Apra, E. J. Bylaska, N. Govind, K. Kowalski, M. Valiev, D. Mejia-Rodriguez,
       A. Kunitsa, N. P. Bauman, A. Panyala, W. A. de Jong, T. P. Straatsma,
   H. J. J. van Dam, D. Wang, T. L. Windus, J. Hammond, J. Autschbach, A. Woods,
    K. Bhaskaran-Nair, J. Brabec, K. Lopata, S. A. Fischer, S. Krishnamoorthy,
     M. Jacquelin, W. Ma, M. Klemm, O. Villa, Y. Chen, V. Anisimov, F. Aquino,
     S. Hirata, M. T. Hackler, E. Hermes, L. Jensen, J. E. Moore, J. C. Becca,
      V. Konjkov, T. Risthaus, M. Malagoli, A. Marenich, A. Otero-de-la-Roza,
        J. Mullin, P. Nichols, R. Peverati, J. Pittner, Y. Zhao, P.-D. Fan,
        A. Fonari, M. J. Williamson, R. J. Harrison, J. R. Rehr, M. Dupuis,
     D. Silverstein, D. M. A. Smith, J. Nieplocha, V. Tipparaju, M. Krishnan,
     B. E. Van Kuiken, A. Vazquez-Mayagoitia, M. Swart, Q. Wu, T. Van Voorhis,
     A. A. Auer, M. Nooijen, L. D. Crosby, E. Brown, G. Cisneros, G. I. Fann,
   H. Fruchtl, J. Garza, K. Hirao, R. A. Kendall, J. A. Nichols, K. Tsemekhman,
    K. Wolinski, J. Anchell, D. E. Bernholdt, P. Borowski, T. Clark, D. Clerc,
   H. Dachsel, M. J. O. Deegan, K. Dyall, D. Elwood, E. Glendening, M. Gutowski,
   A. C. Hess, J. Jaffe, B. G. Johnson, J. Ju, R. Kobayashi, R. Kutteh, Z. Lin,
   R. Littlefield, X. Long, B. Meng, T. Nakajima, S. Niu, L. Pollack, M. Rosing,
   K. Glaesemann, G. Sandrone, M. Stave, H. Taylor, G. Thomas, J. H. van Lenthe,
                               A. T. Wong, Z. Zhang.

 Total times  cpu:        5.0s     wall:        5.0s
