
 Entering Gaussian System  

                          Input orientation:   
 ---------------------------------------------------------------------
 Center     Atomic     Atomic              Coordinates (Angstroms)
 Number     Number      Type              X           Y           Z 
 ---------------------------------------------------------------------
    1          6             0        0.000000    0.000000    1.965168
    2          6             0        0.000000    0.000000    0.633464
    3          6             0        0.000000    0.000000   -0.633464
    4          6             0        0.000000    0.000000   -1.965168
    5          1             0        0.000000    0.919441   -2.521398
    6          1             0        0.000000   -0.919441   -2.521398
    7          1             0        0.000000    0.919441    2.521398
    8          1             0        0.000000   -0.919441    2.521398
 ---------------------------------------------------------------------

Energy =     0.304924    0.338683

                          Input orientation:   
 ---------------------------------------------------------------------
 Center     Atomic     Atomic              Coordinates (Angstroms)
 Number     Number      Type              X           Y           Z 
 ---------------------------------------------------------------------
    1          6             0        0.000000   -0.000000    1.963205
    2          6             0        0.000000    0.000000    0.640232
    3          6             0        0.000000   -0.000000   -0.640232
    4          6             0        0.000000    0.000000   -1.963205
    5          1             0       -0.105847    0.918377   -2.520768
    6          1             0        0.105847   -0.918377   -2.520768
    7          1             0        0.105847    0.918377    2.520768
    8          1             0       -0.105847   -0.918377    2.520768
 ---------------------------------------------------------------------

Energy =     0.307577    0.339434

                          Input orientation:   
 ---------------------------------------------------------------------
 Center     Atomic     Atomic              Coordinates (Angstroms)
 Number     Number      Type              X           Y           Z 
 ---------------------------------------------------------------------
    1          6             0        0.000000   -0.000000    1.963028
    2          6             0        0.000000    0.000000    0.640841
    3          6             0        0.000000   -0.000000   -0.640841
    4          6             0        0.000000    0.000000   -1.963028
    5          1             0        0.105979    0.918281   -2.520711
    6          1             0       -0.105979   -0.918281   -2.520711
    7          1             0       -0.105979    0.918281    2.520711
    8          1             0        0.105979   -0.918281    2.520711
 ---------------------------------------------------------------------

Energy =     0.307839    0.339288

                          Input orientation:   
 ---------------------------------------------------------------------
 Center     Atomic     Atomic              Coordinates (Angstroms)
 Number     Number      Type              X           Y           Z 
 ---------------------------------------------------------------------
    1          6             0        0.000000    0.000000    1.984330
    2          6             0        0.000000   -0.000000    0.567419
    3          6             0        0.000000    0.000000   -0.567419
    4          6             0        0.000000   -0.000000   -1.984330
    5          1             0       -0.211008    0.929828   -2.527551
    6          1             0        0.211008   -0.929828   -2.527551
    7          1             0        0.211008    0.929828    2.527551
    8          1             0       -0.211008   -0.929828    2.527551
 ---------------------------------------------------------------------

Energy =     0.332298    0.410467

                          Input orientation:   
 ---------------------------------------------------------------------
 Center     Atomic     Atomic              Coordinates (Angstroms)
 Number     Number      Type              X           Y           Z 
 ---------------------------------------------------------------------
    1          6             0        0.000000    0.000000    1.985700
    2          6             0        0.000000   -0.000000    0.562696
    3          6             0        0.000000    0.000000   -0.562696
    4          6             0        0.000000   -0.000000   -1.985700
    5          1             0        0.211033    0.930571   -2.527991
    6          1             0       -0.211033   -0.930571   -2.527991
    7          1             0       -0.211033    0.930571    2.527991
    8          1             0        0.211033   -0.930571    2.527991
 ---------------------------------------------------------------------

Energy =     0.338340    0.416033

                          Input orientation:   
 ---------------------------------------------------------------------
 Center     Atomic     Atomic              Coordinates (Angstroms)
 Number     Number      Type              X           Y           Z 
 ---------------------------------------------------------------------
    1          6             0        0.000000    0.000000    1.980880
    2          6             0        0.000000   -0.000000    0.579308
    3          6             0        0.000000    0.000000   -0.579308
    4          6             0        0.000000   -0.000000   -1.980880
    5          1             0       -0.316881    0.927958   -2.526443
    6          1             0        0.316881   -0.927958   -2.526443
    7          1             0        0.316881    0.927958    2.526443
    8          1             0       -0.316881   -0.927958    2.526443
 ---------------------------------------------------------------------

Energy =     0.326394    0.397902

                          Input orientation:   
 ---------------------------------------------------------------------
 Center     Atomic     Atomic              Coordinates (Angstroms)
 Number     Number      Type              X           Y           Z 
 ---------------------------------------------------------------------
    1          6             0        0.000000   -0.000000    1.959365
    2          6             0        0.000000    0.000000    0.653467
    3          6             0        0.000000   -0.000000   -0.653467
    4          6             0        0.000000    0.000000   -1.959365
    5          1             0        0.315841    0.916296   -2.519535
    6          1             0       -0.315841   -0.916296   -2.519535
    7          1             0       -0.315841    0.916296    2.519535
    8          1             0        0.315841   -0.916296    2.519535
 ---------------------------------------------------------------------

Energy =     0.328421    0.357495

                          Input orientation:   
 ---------------------------------------------------------------------
 Center     Atomic     Atomic              Coordinates (Angstroms)
 Number     Number      Type              X           Y           Z 
 ---------------------------------------------------------------------
    1          6             0        0.000000   -0.000000    1.950165
    2          6             0        0.000000    0.000000    0.685180
    3          6             0        0.000000   -0.000000   -0.685180
    4          6             0        0.000000    0.000000   -1.950165
    5          1             0       -0.316891    0.911308   -2.516580
    6          1             0        0.316891   -0.911308   -2.516580
    7          1             0        0.316891    0.911308    2.516580
    8          1             0       -0.316891   -0.911308    2.516580
 ---------------------------------------------------------------------

Energy =     0.354972    0.368674

                          Input orientation:   
 ---------------------------------------------------------------------
 Center     Atomic     Atomic              Coordinates (Angstroms)
 Number     Number      Type              X           Y           Z 
 ---------------------------------------------------------------------
    1          6             0        0.000000   -0.000000    1.963269
    2          6             0        0.000000    0.000000    0.640010
    3          6             0        0.000000   -0.000000   -0.640010
    4          6             0        0.000000    0.000000   -1.963269
    5          1             0       -0.422642    0.918412   -2.520788
    6          1             0        0.422642   -0.918412   -2.520788
    7          1             0        0.422642    0.918412    2.520788
    8          1             0       -0.422642   -0.918412    2.520788
 ---------------------------------------------------------------------

Energy =     0.335618    0.383812

                          Input orientation:   
 ---------------------------------------------------------------------
 Center     Atomic     Atomic              Coordinates (Angstroms)
 Number     Number      Type              X           Y           Z 
 ---------------------------------------------------------------------
    1          6             0        0.000000   -0.000000    1.948828
    2          6             0        0.000000    0.000000    0.689785
    3          6             0        0.000000   -0.000000   -0.689785
    4          6             0        0.000000    0.000000   -1.948828
    5          1             0        0.421723    0.910584   -2.516151
    6          1             0       -0.421723   -0.910584   -2.516151
    7          1             0       -0.421723    0.910584    2.516151
    8          1             0        0.421723   -0.910584    2.516151
 ---------------------------------------------------------------------

Energy =     0.381384    0.389808
