[Molden Format]
[Atoms] AU
C 1 114 0.0 0.0 4.103084561150151
C 2 114 -2.331661088239518 1.3461859925099189 4.103084561150151
[GTO]
1 0
s 7 1.00
6.132624767898 -0.1055765637
2.625196064782 -0.1748666211
1.045456957247 0.0644649814
0.478316330874 0.8304470353
0.178617414302 0.3719113738
0.075144725465 0.006174464
0.030286753006 0.0089664773
p 7 1.00
6.132624767898 0.0350981084
2.625196064782 0.1141979309
1.045456957247 0.2159081373
0.478316330874 0.355929151
0.178617414302 0.271541842
0.075144725465 0.0562565577
0.030286753006 0.0049980597
2 0
s 7 1.00
6.132624767898 -0.1055765637
2.625196064782 -0.1748666211
1.045456957247 0.0644649814
0.478316330874 0.8304470353
0.178617414302 0.3719113738
0.075144725465 0.006174464
0.030286753006 0.0089664773
p 7 1.00
6.132624767898 0.0350981084
2.625196064782 0.1141979309
1.045456957247 0.2159081373
0.478316330874 0.355929151
0.178617414302 0.271541842
0.075144725465 0.0562565577
0.030286753006 0.0049980597

[5D7F]
