 argument  1 = h2o-namd.nw
                                         
                                         


             Northwest Computational Chemistry Package (NWChem) 7.2.0
             --------------------------------------------------------


                    Environmental Molecular Sciences Laboratory
                       Pacific Northwest National Laboratory
                                Richland, WA 99352

                              Copyright (c) 1994-2022
                       Pacific Northwest National Laboratory
                            Battelle Memorial Institute

             NWChem is an open-source computational chemistry package
                        distributed under the terms of the
                      Educational Community License (ECL) 2.0
             A copy of the license is included with this distribution
                              in the LICENSE.TXT file

                                  ACKNOWLEDGMENT
                                  --------------

            This software and its documentation were developed at the
            EMSL at Pacific Northwest National Laboratory, a multiprogram
            national laboratory, operated for the U.S. Department of Energy
            by Battelle under Contract Number DE-AC05-76RL01830. Support
            for this work was provided by the Department of Energy Office
            of Biological and Environmental Research, Office of Basic
            Energy Sciences, and the Office of Advanced Scientific Computing.


           Job information
           ---------------

    hostname        = cpn-p27-27.compute.cbls.ccr.buffalo.edu
    program         = nwchem
    date            = Wed Jun 21 14:13:38 2023

    compiled        = Sat_Jun_03_00:13:02_2023
    source          = /home/conda/feedstock_root/build_artifacts/nwchem_1685742347738/work
    nwchem branch   = 7.2.0
    nwchem revision = a703444
    ga revision     = 5.8.0
    use scalapack   = T
    input           = h2o-namd.nw
    prefix          = h2o-namd.
    data base       = ./h2o-namd.db
    status          = startup
    nproc           =       12
    time left       =     -1s



           Memory information
           ------------------

    heap     =   26214400 doubles =    200.0 Mbytes
    stack    =   26214397 doubles =    200.0 Mbytes
    global   =   52428800 doubles =    400.0 Mbytes (distinct from heap & stack)
    total    =  104857597 doubles =    800.0 Mbytes
    verify   = yes
    hardfail = no 


           Directory information
           ---------------------

  0 permanent = .
  0 scratch   = .




                                NWChem Input Module
                                -------------------



 Scaling coordinates for geometry "geometry" by  1.889725989
 (inverse scale =  0.529177249)


          ------
          auto-z
          ------
  no constraints, skipping    0.0000000000000000     
  no constraints, skipping    0.0000000000000000     


                             Geometry "geometry" -> ""
                             -------------------------

 Output coordinates in angstroms (scale by  1.889725989 to convert to a.u.)

  No.       Tag          Charge          X              Y              Z
 ---- ---------------- ---------- -------------- -------------- --------------
    1 O                    8.0000     0.00000000     0.00000000     0.11970000
    2 H                    1.0000     0.00000000     0.76150000    -0.47900000
    3 H                    1.0000     0.00000000    -0.76150000    -0.47900000

      Atomic Mass 
      ----------- 

      O                 15.994910
      H                  1.007825


 Effective nuclear repulsion energy (a.u.)       9.0881276492

            Nuclear Dipole moment (a.u.) 
            ----------------------------
        X                 Y               Z
 ---------------- ---------------- ----------------
     0.0000000000     0.0000000000    -0.0007558904



                                Z-matrix (autoz)
                                -------- 

 Units are Angstrom for bonds and degrees for angles

      Type          Name      I     J     K     L     M      Value
      ----------- --------  ----- ----- ----- ----- ----- ----------
    1 Stretch                  1     2                       0.96867
    2 Stretch                  1     3                       0.96867
    3 Bend                     2     1     3               103.65033


            XYZ format geometry
            -------------------
     3
 geometry
 O                     0.00000000     0.00000000     0.11970000
 H                     0.00000000     0.76150000    -0.47900000
 H                     0.00000000    -0.76150000    -0.47900000

 ==============================================================================
                                internuclear distances
 ------------------------------------------------------------------------------
       center one      |      center two      | atomic units |  angstroms
 ------------------------------------------------------------------------------
    2 H                |   1 O                |     1.83052  |     0.96867
    3 H                |   1 O                |     1.83052  |     0.96867
 ------------------------------------------------------------------------------
                         number of included internuclear distances:          2
 ==============================================================================



 ==============================================================================
                                 internuclear angles
 ------------------------------------------------------------------------------
        center 1       |       center 2       |       center 3       |  degrees
 ------------------------------------------------------------------------------
    2 H                |   1 O                |   3 H                |   103.65
 ------------------------------------------------------------------------------
                            number of included internuclear angles:          1
 ==============================================================================



  library name resolved from: environment
  library file name is: </projects/academic/cyberwksp21/Software/nwchem_conda0/share/nwchem/libraries/>
  


 Summary of "ao basis" -> "" (cartesian)
 ------------------------------------------------------------------------------
       Tag                 Description            Shells   Functions and Types
 ---------------- ------------------------------  ------  ---------------------
 *                           6-31G*                   on all atoms 


 tddft_input: filename not found; default name will be used
  Ext forces = none


                                 NWChem QMD Module
                                 -----------------




                                QMD Run Parameters
                                ------------------


    No. of nuclear steps:                  50
       Nuclear time step:                0.50
        Target temp. (K):              300.00
              Thermostat:                 svr
                     Tau:              500.00
             Random seed:              -15769
      Nuclear integrator:     velocity-verlet
  do_linear  F
  do_linear  F
  do_linear  F
  do_linear  F
  do_linear  F
  do_linear  F
  do_linear  F
  do_linear  F
  do_linear  F
  do_linear  F
  do_linear  F
  do_linear  F


                                QMD NAMD Parameters
                                -------------------


         Elec. time step:              0.1000
        Number of states:                   5
           Initial state:                   3
             Decoherence:                   T


                      Basis "ao basis" -> "ao basis" (cartesian)
                      -----
  O (Oxygen)
  ----------
            Exponent  Coefficients 
       -------------- ---------------------------------------------------------
  1 S  5.48467170E+03  0.001831
  1 S  8.25234950E+02  0.013950
  1 S  1.88046960E+02  0.068445
  1 S  5.29645000E+01  0.232714
  1 S  1.68975700E+01  0.470193
  1 S  5.79963530E+00  0.358521

  2 S  1.55396160E+01 -0.110778
  2 S  3.59993360E+00 -0.148026
  2 S  1.01376180E+00  1.130767

  3 P  1.55396160E+01  0.070874
  3 P  3.59993360E+00  0.339753
  3 P  1.01376180E+00  0.727159

  4 S  2.70005800E-01  1.000000

  5 P  2.70005800E-01  1.000000

  6 D  8.00000000E-01  1.000000

  H (Hydrogen)
  ------------
            Exponent  Coefficients 
       -------------- ---------------------------------------------------------
  1 S  1.87311370E+01  0.033495
  1 S  2.82539370E+00  0.234727
  1 S  6.40121700E-01  0.813757

  2 S  1.61277800E-01  1.000000



 Summary of "ao basis" -> "ao basis" (cartesian)
 ------------------------------------------------------------------------------
       Tag                 Description            Shells   Functions and Types
 ---------------- ------------------------------  ------  ---------------------
 O                           6-31G*                  6       15   3s2p1d
 H                           6-31G*                  2        2   2s


 no velocities found in input
       Current temp. (K):              446.62

                                 NWChem DFT Module
                                 -----------------




 Summary of "ao basis" -> "ao basis" (cartesian)
 ------------------------------------------------------------------------------
       Tag                 Description            Shells   Functions and Types
 ---------------- ------------------------------  ------  ---------------------
 O                           6-31G*                  6       15   3s2p1d
 H                           6-31G*                  2        2   2s


  Caching 1-el integrals 

            General Information
            -------------------
          SCF calculation type: DFT
          Wavefunction type:  closed shell.
          No. of atoms     :     3
          No. of electrons :    10
           Alpha electrons :     5
            Beta electrons :     5
          Charge           :     0
          Spin multiplicity:     1
          Use of symmetry is: off; symmetry adaption is: off
          Maximum number of iterations:  50
          AO basis - number of functions:    19
                     number of shells:    10
          Convergence on energy requested:  1.00D-06
          Convergence on density requested:  1.00D-05
          Convergence on gradient requested:  5.00D-04

              XC Information
              --------------
                         B3LYP Method XC Potential
                     Hartree-Fock (Exact) Exchange  0.200          
                        Slater Exchange Functional  0.800 local    
                    Becke 1988 Exchange Functional  0.720 non-local
              Lee-Yang-Parr Correlation Functional  0.810          
                  VWN I RPA Correlation Functional  0.190 local    

             Grid Information
             ----------------
          Grid used for XC integration:  medium    
          Radial quadrature: Mura-Knowles        
          Angular quadrature: Lebedev. 
          Tag              B.-S. Rad. Rad. Pts. Rad. Cut. Ang. Pts.
          ---              ---------- --------- --------- ---------
          O                   0.60       49           5.0       434
          H                   0.35       45           6.0       434
          Grid pruning is: on 
          Number of quadrature shells:   139
          Spatial weights used:  Erf1

          Convergence Information
          -----------------------
          Convergence aids based upon iterative change in 
          total energy or number of iterations. 
          Levelshifting, if invoked, occurs when the 
          HOMO/LUMO gap drops below (HL_TOL):  1.00D-02
          DIIS, if invoked, will attempt to extrapolate 
          using up to (NFOCK): 10 stored Fock matrices.

                    Damping( 0%)  Levelshifting(0.5)       DIIS
                  --------------- ------------------- ---------------
          dE  on:    start            ASAP                start   
          dE off:    2 iters         50 iters            50 iters 


      Screening Tolerance Information
      -------------------------------
          Density screening/tol_rho:  1.00D-10
          AO Gaussian exp screening on grid/accAOfunc:  14
          CD Gaussian exp screening on grid/accCDfunc:  20
          XC Gaussian exp screening on grid/accXCfunc:  20
          Schwarz screening/accCoul:  1.00D-08


      Superposition of Atomic Density Guess
      -------------------------------------

 Sum of atomic energies:         -75.75081731

      Non-variational initial energy
      ------------------------------

 Total energy =     -75.898113
 1-e energy   =    -121.563342
 2-e energy   =      36.577101
 HOMO         =      -0.466850
 LUMO         =       0.111415

  WARNING: movecs_in_org=atomic not equal to movecs_in=./h2o-namd.movecs
   Time after variat. SCF:      1.3
   Time prior to 1st pass:      1.3

 Grid_pts file          = ./h2o-namd.gridpts.00
 Record size in doubles =  12289        No. of grid_pts per rec  =   3070
 Max. records in memory =      3        Max. recs in file   =  84437568


           Memory utilization after 1st SCF pass: 
           Heap Space remaining (MW):        0.00                  26
          Stack Space remaining (MW):       26.21            26213852

   convergence    iter        energy       DeltaE   RMS-Dens  Diis-err    time
 ---------------- ----- ----------------- --------- --------- ---------  ------
 d= 0,ls=0.0,diis     1    -76.3715727897 -8.55D+01  4.14D-02  3.79D-01     1.4
 d= 0,ls=0.0,diis     2    -76.3667434157  4.83D-03  2.04D-02  4.70D-01     1.4
 d= 0,ls=0.0,diis     3    -76.4079161480 -4.12D-02  2.63D-03  1.19D-02     1.5
 d= 0,ls=0.0,diis     4    -76.4089472592 -1.03D-03  2.39D-04  7.38D-05     1.5
 d= 0,ls=0.0,diis     5    -76.4089545217 -7.26D-06  1.06D-05  4.01D-08     1.5
 d= 0,ls=0.0,diis     6    -76.4089545276 -5.92D-09  1.95D-06  1.26D-09     1.6


         Total DFT energy =      -76.408954527608
      One electron energy =     -122.936801224222
           Coulomb energy =       46.783045289849
    Exchange-Corr. energy =       -9.343326242389
 Nuclear repulsion energy =        9.088127649155

 Numeric. integr. density =       10.000001094654

     Total iterative time =      0.2s



                       DFT Final Molecular Orbital Analysis
                       ------------------------------------

 Vector    1  Occ=2.000000D+00  E=-1.913816D+01
              MO Center=  1.2D-17, -7.2D-15,  1.2D-01, r^2= 1.5D-02
   Bfn.  Coefficient  Atom+Function         Bfn.  Coefficient  Atom+Function  
  ----- ------------  ---------------      ----- ------------  ---------------
     1      0.992860  1 O  s                  2      0.026224  1 O  s          

 Vector    2  Occ=2.000000D+00  E=-9.979059D-01
              MO Center=  6.7D-15, -1.1D-12, -8.8D-02, r^2= 5.1D-01
   Bfn.  Coefficient  Atom+Function         Bfn.  Coefficient  Atom+Function  
  ----- ------------  ---------------      ----- ------------  ---------------
     2      0.469211  1 O  s                  6      0.439501  1 O  s          
     1     -0.209500  1 O  s                 16      0.139152  2 H  s          
    18      0.139152  3 H  s                  5     -0.127701  1 O  pz         
     9     -0.060652  1 O  pz         

 Vector    3  Occ=2.000000D+00  E=-5.171515D-01
              MO Center=  9.9D-16,  4.1D-13, -1.1D-01, r^2= 7.9D-01
   Bfn.  Coefficient  Atom+Function         Bfn.  Coefficient  Atom+Function  
  ----- ------------  ---------------      ----- ------------  ---------------
     4      0.517446  1 O  py                 8      0.269758  1 O  py         
    16      0.237440  2 H  s                 18     -0.237440  3 H  s          
    17      0.141947  2 H  s                 19     -0.141947  3 H  s          
    14     -0.071487  1 O  dyz        

 Vector    4  Occ=2.000000D+00  E=-3.722242D-01
              MO Center=  7.4D-15,  2.7D-13,  2.0D-01, r^2= 7.0D-01
   Bfn.  Coefficient  Atom+Function         Bfn.  Coefficient  Atom+Function  
  ----- ------------  ---------------      ----- ------------  ---------------
     5      0.551815  1 O  pz                 6      0.410441  1 O  s          
     9      0.372143  1 O  pz                 2      0.177263  1 O  s          
    16     -0.143731  2 H  s                 18     -0.143731  3 H  s          
    17     -0.114268  2 H  s                 19     -0.114268  3 H  s          
     1     -0.088100  1 O  s                 15     -0.052425  1 O  dzz        

 Vector    5  Occ=2.000000D+00  E=-2.911941D-01
              MO Center= -1.1D-14,  2.8D-14,  9.9D-02, r^2= 6.0D-01
   Bfn.  Coefficient  Atom+Function         Bfn.  Coefficient  Atom+Function  
  ----- ------------  ---------------      ----- ------------  ---------------
     3      0.644579  1 O  px                 7      0.506047  1 O  px         
    12     -0.061384  1 O  dxz        

 Vector    6  Occ=0.000000D+00  E= 6.261373D-02
              MO Center=  1.9D-15, -1.9D-11, -6.2D-01, r^2= 2.4D+00
   Bfn.  Coefficient  Atom+Function         Bfn.  Coefficient  Atom+Function  
  ----- ------------  ---------------      ----- ------------  ---------------
     6      1.257888  1 O  s                 17     -0.969093  2 H  s          
    19     -0.969093  3 H  s                  9     -0.477468  1 O  pz         
     5     -0.280659  1 O  pz                 2      0.119295  1 O  s          
     1     -0.100644  1 O  s                 16     -0.096263  2 H  s          
    18     -0.096263  3 H  s                 10     -0.058045  1 O  dxx        

 Vector    7  Occ=0.000000D+00  E= 1.481378D-01
              MO Center=  2.1D-16,  1.8D-11, -5.7D-01, r^2= 2.5D+00
   Bfn.  Coefficient  Atom+Function         Bfn.  Coefficient  Atom+Function  
  ----- ------------  ---------------      ----- ------------  ---------------
    17      1.277876  2 H  s                 19     -1.277876  3 H  s          
     8     -0.758827  1 O  py                 4     -0.413443  1 O  py         
    16      0.107340  2 H  s                 18     -0.107340  3 H  s          
    14      0.031936  1 O  dyz        

 Vector    8  Occ=0.000000D+00  E= 7.724760D-01
              MO Center=  3.6D-16, -1.4D-11, -1.5D-01, r^2= 1.6D+00
   Bfn.  Coefficient  Atom+Function         Bfn.  Coefficient  Atom+Function  
  ----- ------------  ---------------      ----- ------------  ---------------
    16      0.840215  2 H  s                 18     -0.840215  3 H  s          
    17     -0.655192  2 H  s                 19      0.655192  3 H  s          
     8     -0.430666  1 O  py                14     -0.339525  1 O  dyz        
     4     -0.172174  1 O  py         

 Vector    9  Occ=0.000000D+00  E= 8.609833D-01
              MO Center= -4.5D-15,  1.3D-11, -2.1D-01, r^2= 1.3D+00
   Bfn.  Coefficient  Atom+Function         Bfn.  Coefficient  Atom+Function  
  ----- ------------  ---------------      ----- ------------  ---------------
     5      0.708352  1 O  pz                16      0.711358  2 H  s          
    18      0.711358  3 H  s                 17     -0.551725  2 H  s          
    19     -0.551725  3 H  s                  9     -0.383927  1 O  pz         
    13      0.153639  1 O  dyy                2     -0.134913  1 O  s          
     6      0.134244  1 O  s                 10     -0.119046  1 O  dxx        

 Vector   10  Occ=0.000000D+00  E= 8.907789D-01
              MO Center=  1.9D-13, -9.9D-14,  1.2D-01, r^2= 1.1D+00
   Bfn.  Coefficient  Atom+Function         Bfn.  Coefficient  Atom+Function  
  ----- ------------  ---------------      ----- ------------  ---------------
     7     -1.038623  1 O  px                 3      0.959434  1 O  px         
    12      0.028415  1 O  dxz        

 Vector   11  Occ=0.000000D+00  E= 8.950987D-01
              MO Center= -1.8D-13, -7.9D-13,  3.2D-01, r^2= 1.4D+00
   Bfn.  Coefficient  Atom+Function         Bfn.  Coefficient  Atom+Function  
  ----- ------------  ---------------      ----- ------------  ---------------
     6      1.409939  1 O  s                  2     -0.836147  1 O  s          
     9      0.827289  1 O  pz                 5     -0.557789  1 O  pz         
    16      0.468446  2 H  s                 18      0.468446  3 H  s          
    17     -0.373837  2 H  s                 19     -0.373837  3 H  s          
    10     -0.327567  1 O  dxx               15     -0.276888  1 O  dzz        

 Vector   12  Occ=0.000000D+00  E= 1.065795D+00
              MO Center=  4.8D-16,  1.5D-12,  1.0D-01, r^2= 1.5D+00
   Bfn.  Coefficient  Atom+Function         Bfn.  Coefficient  Atom+Function  
  ----- ------------  ---------------      ----- ------------  ---------------
     8      1.628103  1 O  py                 4     -0.989249  1 O  py         
    17     -0.926716  2 H  s                 19      0.926716  3 H  s          
    14      0.027678  1 O  dyz        

 Vector   13  Occ=0.000000D+00  E= 1.193452D+00
              MO Center= -1.1D-14,  1.1D-12, -3.7D-01, r^2= 1.4D+00
   Bfn.  Coefficient  Atom+Function         Bfn.  Coefficient  Atom+Function  
  ----- ------------  ---------------      ----- ------------  ---------------
     6      3.596942  1 O  s                  2     -1.457522  1 O  s          
     9     -1.105648  1 O  pz                17     -0.773261  2 H  s          
    19     -0.773261  3 H  s                 13     -0.657531  1 O  dyy        
     5      0.402505  1 O  pz                15     -0.393284  1 O  dzz        
    16     -0.352111  2 H  s                 18     -0.352111  3 H  s          

 Vector   14  Occ=0.000000D+00  E= 1.729082D+00
              MO Center=  1.2D-16,  2.0D-14,  1.7D-01, r^2= 6.2D-01
   Bfn.  Coefficient  Atom+Function         Bfn.  Coefficient  Atom+Function  
  ----- ------------  ---------------      ----- ------------  ---------------
    15      1.006951  1 O  dzz               13     -0.595920  1 O  dyy        
    10     -0.343909  1 O  dxx                6     -0.252445  1 O  s          
     9      0.143571  1 O  pz                 2      0.090123  1 O  s          
    16      0.081732  2 H  s                 18      0.081732  3 H  s          
    17      0.042272  2 H  s                 19      0.042272  3 H  s          

 Vector   15  Occ=0.000000D+00  E= 1.746365D+00
              MO Center= -2.0D-15,  2.7D-13,  1.2D-01, r^2= 6.1D-01
   Bfn.  Coefficient  Atom+Function         Bfn.  Coefficient  Atom+Function  
  ----- ------------  ---------------      ----- ------------  ---------------
    11      1.732051  1 O  dxy        

 Vector   16  Occ=0.000000D+00  E= 1.779796D+00
              MO Center= -1.7D-15, -2.0D-13,  1.4D-01, r^2= 6.1D-01
   Bfn.  Coefficient  Atom+Function         Bfn.  Coefficient  Atom+Function  
  ----- ------------  ---------------      ----- ------------  ---------------
    12      1.730730  1 O  dxz                7      0.035000  1 O  px         

 Vector   17  Occ=0.000000D+00  E= 2.280635D+00
              MO Center= -1.1D-15, -2.0D-13,  2.4D-03, r^2= 8.3D-01
   Bfn.  Coefficient  Atom+Function         Bfn.  Coefficient  Atom+Function  
  ----- ------------  ---------------      ----- ------------  ---------------
     6      1.539000  1 O  s                 10     -1.131173  1 O  dxx        
    16     -0.812428  2 H  s                 18     -0.812428  3 H  s          
     9     -0.739149  1 O  pz                13      0.736226  1 O  dyy        
     2     -0.514854  1 O  s                 17     -0.141449  2 H  s          
    19     -0.141449  3 H  s                 15      0.070711  1 O  dzz        

 Vector   18  Occ=0.000000D+00  E= 2.577193D+00
              MO Center= -2.2D-16,  3.6D-13,  6.3D-02, r^2= 8.6D-01
   Bfn.  Coefficient  Atom+Function         Bfn.  Coefficient  Atom+Function  
  ----- ------------  ---------------      ----- ------------  ---------------
    14      2.203436  1 O  dyz               16      0.923564  2 H  s          
    18     -0.923564  3 H  s                  8     -0.842476  1 O  py         
    17     -0.050156  2 H  s                 19      0.050156  3 H  s          
     4      0.036876  1 O  py         

 Vector   19  Occ=0.000000D+00  E= 3.551926D+00
              MO Center=  2.2D-16,  3.6D-14,  1.2D-01, r^2= 1.0D+00
   Bfn.  Coefficient  Atom+Function         Bfn.  Coefficient  Atom+Function  
  ----- ------------  ---------------      ----- ------------  ---------------
     6      3.689627  1 O  s                 10     -1.578749  1 O  dxx        
    15     -1.549656  1 O  dzz               13     -1.526147  1 O  dyy        
    17     -0.554572  2 H  s                 19     -0.554572  3 H  s          
     1     -0.467952  1 O  s                  9     -0.333982  1 O  pz         
     2      0.286679  1 O  s                  5      0.116621  1 O  pz         


 center of mass
 --------------
 x =   0.00000000 y =   0.00000000 z =   0.09958204

 moments of inertia (a.u.)
 ------------------
           6.465322372702           0.000000000000           0.000000000000
           0.000000000000           2.291320786480           0.000000000000
           0.000000000000           0.000000000000           4.174001586222

     Multipole analysis of the density
     ---------------------------------

     L   x y z        total         alpha         beta         nuclear
     -   - - -        -----         -----         ----         -------
     0   0 0 0     -0.000000     -5.000000     -5.000000     10.000000

     1   1 0 0     -0.000000     -0.000000     -0.000000      0.000000
     1   0 1 0      0.000000      0.000000      0.000000      0.000000
     1   0 0 1     -0.824383     -0.411814     -0.411814     -0.000756

     2   2 0 0     -5.355825     -2.677912     -2.677912      0.000000
     2   1 1 0     -0.000000     -0.000000     -0.000000      0.000000
     2   1 0 1     -0.000000     -0.000000     -0.000000      0.000000
     2   0 2 0     -3.187054     -3.664324     -3.664324      4.141594
     2   0 1 1     -0.000000     -0.000000     -0.000000      0.000000
     2   0 0 2     -4.453085     -3.250557     -3.250557      2.048029

                                NWChem TDDFT Module
                                -------------------


            General Information
            -------------------
           No. of orbitals :      38
            Alpha orbitals :      19
             Beta orbitals :      19
        Alpha frozen cores :       0
         Beta frozen cores :       0
     Alpha frozen virtuals :       0
      Beta frozen virtuals :       0
         Spin multiplicity :       1
    Number of AO functions :      19
        Use of symmetry is : off
      Symmetry adaption is : off
         Schwarz screening :  0.10D-07

              XC Information
              --------------
                  B3LYP Method XC Potential
              Hartree-Fock (Exact) Exchange   0.20          
                 Slater Exchange Functional   0.80 local    
             Becke 1988 Exchange Functional   0.72 non-local
       Lee-Yang-Parr Correlation Functional   0.81          
           VWN I RPA Correlation Functional   0.19 local    

             TDDFT Information
             -----------------
          Calculation type : Tamm-Dancoff TDDFT
         Wavefunction type : Restricted singlets
          No. of electrons :      10
           Alpha electrons :       5
            Beta electrons :       5
              No. of roots :      10
          Max subspacesize :    6000
            Max iterations :     100
               Target root :       3
           Target symmetry : none
      Symmetry restriction : off
                 Algorithm : Optimal
        Davidson threshold :  0.10D-03

            Memory Information
            ------------------
          Available GA space size is         629144517 doubles
          Available MA space size is          18872380 doubles
          Length of a trial vector is           70
          Algorithm : Incore multiple tensor contraction
          Estimated peak GA usage is           1290663 doubles
          Estimated peak MA usage is             51000 doubles

   10 smallest eigenvalue differences (eV) 
--------------------------------------------------------
  No. Spin  Occ  Vir  Irrep   E(Occ)    E(Vir)   E(Diff)
--------------------------------------------------------
    1    1    5    6 a        -0.291     0.063     9.628
    2    1    4    6 a        -0.372     0.063    11.833
    3    1    5    7 a        -0.291     0.148    11.955
    4    1    4    7 a        -0.372     0.148    14.160
    5    1    3    6 a        -0.517     0.063    15.776
    6    1    3    7 a        -0.517     0.148    18.103
    7    1    2    6 a        -0.998     0.063    28.858
    8    1    5    8 a        -0.291     0.772    28.944
    9    1    4    8 a        -0.372     0.772    31.149
   10    1    2    7 a        -0.998     0.148    31.185
--------------------------------------------------------

  Entering Davidson iterations
  Restricted singlet excited states

  Iter   NTrls   NConv    DeltaV     DeltaE      Time   
  ----  ------  ------  ---------  ---------  --------- 
    1     10       0     0.24E+00   0.10+100        0.3
    2     20       0     0.26E-01   0.62E-01        0.3
    3     30       4     0.49E-02   0.96E-03        0.3
    4     36       8     0.20E+00   0.37E-01        0.2
    5     38       9     0.15E-01   0.13E-01        0.1
    6     39       9     0.78E-02   0.16E-03        0.1
    7     40       9     0.56E-03   0.21E-04        0.1
    8     41       9     0.11E-03   0.11E-06        0.1
    9     42      10     0.83E-04   0.75E-08        0.1
  ----  ------  ------  ---------  ---------  --------- 
  Convergence criterion met

  Ground state a         -76.408954527608 a.u.

  ----------------------------------------------------------------------------
  Root   1 singlet a              0.292105224 a.u.                7.9486 eV 
  ----------------------------------------------------------------------------
     Transition Moments    X  0.25894   Y  0.00000   Z  0.00000
     Transition Moments   XX -0.00000  XY -0.00000  XZ -0.06154
     Transition Moments   YY -0.00000  YZ -0.00000  ZZ -0.00000
     Dipole Oscillator Strength                    0.0130575666
     Electric Quadrupole                           0.0000000005
     Magnetic Dipole                               0.0000001237
     Total Oscillator Strength                     0.0130576908

     Occ.    5  a   ---  Virt.    6  a        0.99953
  ----------------------------------------------------------------------------
  Root   2 singlet a              0.365546817 a.u.                9.9470 eV 
  ----------------------------------------------------------------------------
     Transition Moments    X -0.00000   Y -0.00000   Z -0.00000
     Transition Moments   XX  0.00000  XY -0.22170  XZ  0.00000
     Transition Moments   YY -0.00000  YZ  0.00000  ZZ  0.00000
     Dipole Oscillator Strength                    0.0000000000
     Electric Quadrupole                           0.0000000128
     Magnetic Dipole                               0.0000003612
     Total Oscillator Strength                     0.0000003740

     Occ.    5  a   ---  Virt.    7  a        0.99937
  ----------------------------------------------------------------------------
  Root   3 singlet a              0.388866744 a.u.               10.5816 eV 
  ----------------------------------------------------------------------------
     Transition Moments    X -0.00000   Y  0.00000   Z  0.63280
     Transition Moments   XX -0.10885  XY  0.00000  XZ -0.00000
     Transition Moments   YY -0.68924  YZ -0.00000  ZZ -0.46207
     Dipole Oscillator Strength                    0.1038107322
     Electric Quadrupole                           0.0000000268
     Magnetic Dipole                               0.0000000000
     Total Oscillator Strength                     0.1038107590

     Occ.    3  a   ---  Virt.    7  a       -0.14540
     Occ.    4  a   ---  Virt.    6  a        0.98691
  ----------------------------------------------------------------------------
  Root   4 singlet a              0.468495022 a.u.               12.7484 eV 
  ----------------------------------------------------------------------------
     Transition Moments    X  0.00000   Y -0.50187   Z  0.00000
     Transition Moments   XX -0.00000  XY  0.00000  XZ -0.00000
     Transition Moments   YY -0.00000  YZ  0.56639  ZZ -0.00000
     Dipole Oscillator Strength                    0.0786669515
     Electric Quadrupole                           0.0000001757
     Magnetic Dipole                               0.0000005869
     Total Oscillator Strength                     0.0786677140

     Occ.    3  a   ---  Virt.    6  a        0.22123
     Occ.    4  a   ---  Virt.    7  a       -0.97305
  ----------------------------------------------------------------------------
  Root   5 singlet a              0.536008748 a.u.               14.5855 eV 
  ----------------------------------------------------------------------------
     Transition Moments    X  0.00000   Y  1.12721   Z -0.00000
     Transition Moments   XX  0.00000  XY -0.00000  XZ -0.00000
     Transition Moments   YY  0.00000  YZ -1.00910  ZZ  0.00000
     Dipole Oscillator Strength                    0.4540391916
     Electric Quadrupole                           0.0000008351
     Magnetic Dipole                               0.0000000246
     Total Oscillator Strength                     0.4540400512

     Occ.    3  a   ---  Virt.    6  a        0.97388
     Occ.    4  a   ---  Virt.    7  a        0.21886
  ----------------------------------------------------------------------------
  Root   6 singlet a              0.664562323 a.u.               18.0837 eV 
  ----------------------------------------------------------------------------
     Transition Moments    X  0.00000   Y -0.00000   Z -0.76626
     Transition Moments   XX  0.09944  XY -0.00000  XZ  0.00000
     Transition Moments   YY  2.01093  YZ  0.00000  ZZ  0.65384
     Dipole Oscillator Strength                    0.2601370642
     Electric Quadrupole                           0.0000015116
     Magnetic Dipole                               0.0000000000
     Total Oscillator Strength                     0.2601385758

     Occ.    2  a   ---  Virt.    6  a       -0.09766
     Occ.    3  a   ---  Virt.    7  a       -0.96324
     Occ.    4  a   ---  Virt.    6  a       -0.12683
     Occ.    4  a   ---  Virt.    9  a       -0.09224
     Occ.    4  a   ---  Virt.   11  a        0.08279
     Occ.    5  a   ---  Virt.   10  a       -0.16016
  ----------------------------------------------------------------------------
  Root   7 singlet a              0.976352149 a.u.               26.5679 eV 
  ----------------------------------------------------------------------------
     Transition Moments    X -0.00000   Y -0.00000   Z -0.00000
     Transition Moments   XX -0.00000  XY  0.49735  XZ -0.00000
     Transition Moments   YY  0.00000  YZ -0.00000  ZZ  0.00000
     Dipole Oscillator Strength                    0.0000000000
     Electric Quadrupole                           0.0000012260
     Magnetic Dipole                               0.0000007270
     Total Oscillator Strength                     0.0000019530

     Occ.    5  a   ---  Virt.    8  a        0.99964
  ----------------------------------------------------------------------------
  Root   8 singlet a              1.020208306 a.u.               27.7613 eV 
  ----------------------------------------------------------------------------
     Transition Moments    X  0.00000   Y -0.00000   Z -0.22306
     Transition Moments   XX -0.25990  XY -0.00000  XZ  0.00000
     Transition Moments   YY  0.84702  YZ  0.00000  ZZ  0.49599
     Dipole Oscillator Strength                    0.0338409338
     Electric Quadrupole                           0.0000018093
     Magnetic Dipole                               0.0000000000
     Total Oscillator Strength                     0.0338427431

     Occ.    2  a   ---  Virt.    6  a        0.93751
     Occ.    4  a   ---  Virt.    9  a       -0.08268
     Occ.    5  a   ---  Virt.   10  a       -0.32955
  ----------------------------------------------------------------------------
  Root   9 singlet a              1.057644179 a.u.               28.7800 eV 
  ----------------------------------------------------------------------------
     Transition Moments    X -0.41683   Y  0.00000   Z -0.00000
     Transition Moments   XX -0.00000  XY -0.00000  XZ -0.40280
     Transition Moments   YY  0.00000  YZ -0.00000  ZZ  0.00000
     Dipole Oscillator Strength                    0.1225069450
     Electric Quadrupole                           0.0000010222
     Magnetic Dipole                               0.0000002664
     Total Oscillator Strength                     0.1225082336

     Occ.    5  a   ---  Virt.    9  a       -0.88906
     Occ.    5  a   ---  Virt.   11  a        0.45248
     Occ.    5  a   ---  Virt.   13  a       -0.05943
  ----------------------------------------------------------------------------
  Root  10 singlet a              1.084399803 a.u.               29.5080 eV 
  ----------------------------------------------------------------------------
     Transition Moments    X -0.00000   Y -0.47793   Z -0.00000
     Transition Moments   XX  0.00000  XY -0.00000  XZ -0.00000
     Transition Moments   YY  0.00000  YZ  0.30219  ZZ -0.00000
     Dipole Oscillator Strength                    0.1651336700
     Electric Quadrupole                           0.0000006201
     Magnetic Dipole                               0.0000018092
     Total Oscillator Strength                     0.1651360992

     Occ.    2  a   ---  Virt.    7  a        0.78516
     Occ.    3  a   ---  Virt.    9  a       -0.11229
     Occ.    3  a   ---  Virt.   11  a       -0.06333
     Occ.    4  a   ---  Virt.    8  a       -0.60477

              Target root =      3
          Target symmetry = none
      Ground state energy =    -76.408954527608
        Excitation energy =      0.388866744294
     Excited state energy =    -76.020087783313

  stored tddft:energy   -76.020087783313443     
 fn_civecs: ./h2o-namd.civecs_singlet                                                                                                                                                                                                                                       

  CI vectors are stored in ./h2o-namd.civecs_singlet       


                           NWChem TDDFT Gradient Module
                           ----------------------------


 ./h2o-namd.civecs_singlet                                                                                                                                                                                                                                      
 Calculated gradients of:
 Number of Singlet roots   1
 Singlet roots    3

 Start at time  cpu:        2.1s  wall:        3.6s

 nroot:                     1
TDDFT Energy Check(  1) =       0.38886674430541
  0 tda  T
  0 tda  T
  0 tda  T
  0 tda  T
  0 tda  T
  0 tda  T
  0 tda  T
  0 tda  T
  0 tda  T
  0 tda  T
  0 tda  T
  0 tda  T
  2 tda  T
  2 tda  T
  2 tda  T
  2 tda  T
  2 tda  T
  2 tda  T
  2 tda  T
  2 tda  T
  2 tda  T
  2 tda  T
  2 tda  T
  2 tda  T


Iterative solution of linear equations
  No. of variables       70
  No. of equations        1
  Maximum subspace       40
        Iterations      250
       Convergence  1.0D-04
        Start time      4.0


   iter   nsub   residual    time
   ----  ------  --------  ---------
     1      1    7.26D-01       4.1
     2      2    9.32D-02       4.2
     3      3    1.17D-02       4.3
     4      4    3.91D-04       4.4
     5      5    1.18D-05       4.5

     Multipole analysis of the density
     ---------------------------------

     L   x y z        total
     -   - - -        -----
     0   0 0 0     -0.000000

     1   1 0 0     -0.000000
     1   0 1 0      0.000000
     1   0 0 1      0.179234

     2   2 0 0     -6.155969
     2   1 1 0     -0.000000
     2   1 0 1     -0.000000
     2   0 2 0     -6.293505
     2   0 1 1     -0.000000
     2   0 0 2     -5.776568


     No. of electrons (tr(P*S)):     0.1000000E+02



                         Root   3

                         TDDFT ENERGY GRADIENTS

    atom               coordinates                        gradient
                 x          y          z           x          y          z
   1 O       0.000000   0.000000   0.226200   -0.000000  -0.000000   0.009984
   2 H       0.000000   1.439026  -0.905179    0.000000  -0.097009  -0.004991
   3 H       0.000000  -1.439026  -0.905179    0.000000   0.097009  -0.004991

 TDDFT Gradient time  cpu:        1.2s  wall:        1.4s

                                 NWChem DFT Module
                                 -----------------




 Summary of "ao basis" -> "ao basis" (cartesian)
 ------------------------------------------------------------------------------
       Tag                 Description            Shells   Functions and Types
 ---------------- ------------------------------  ------  ---------------------
 O                           6-31G*                  6       15   3s2p1d
 H                           6-31G*                  2        2   2s


  Caching 1-el integrals 

            General Information
            -------------------
          SCF calculation type: DFT
          Wavefunction type:  closed shell.
          No. of atoms     :     3
          No. of electrons :    10
           Alpha electrons :     5
            Beta electrons :     5
          Charge           :     0
          Spin multiplicity:     1
          Use of symmetry is: off; symmetry adaption is: off
          Maximum number of iterations:  50
          AO basis - number of functions:    19
                     number of shells:    10
          Convergence on energy requested:  1.00D-06
          Convergence on density requested:  1.00D-05
          Convergence on gradient requested:  5.00D-04

              XC Information
              --------------
                         B3LYP Method XC Potential
                     Hartree-Fock (Exact) Exchange  0.200          
                        Slater Exchange Functional  0.800 local    
                    Becke 1988 Exchange Functional  0.720 non-local
              Lee-Yang-Parr Correlation Functional  0.810          
                  VWN I RPA Correlation Functional  0.190 local    

             Grid Information
             ----------------
          Grid used for XC integration:  medium    
          Radial quadrature: Mura-Knowles        
          Angular quadrature: Lebedev. 
          Tag              B.-S. Rad. Rad. Pts. Rad. Cut. Ang. Pts.
          ---              ---------- --------- --------- ---------
          O                   0.60       49           5.0       434
          H                   0.35       45           6.0       434
          Grid pruning is: on 
          Number of quadrature shells:   139
          Spatial weights used:  Erf1

          Convergence Information
          -----------------------
          Convergence aids based upon iterative change in 
          total energy or number of iterations. 
          Levelshifting, if invoked, occurs when the 
          HOMO/LUMO gap drops below (HL_TOL):  1.00D-02
          DIIS, if invoked, will attempt to extrapolate 
          using up to (NFOCK): 10 stored Fock matrices.

                    Damping( 0%)  Levelshifting(0.5)       DIIS
                  --------------- ------------------- ---------------
          dE  on:    start            ASAP                start   
          dE off:    2 iters         50 iters            50 iters 


      Screening Tolerance Information
      -------------------------------
          Density screening/tol_rho:  1.00D-10
          AO Gaussian exp screening on grid/accAOfunc:  14
          CD Gaussian exp screening on grid/accCDfunc:  20
          XC Gaussian exp screening on grid/accXCfunc:  20
          Schwarz screening/accCoul:  1.00D-08


 Loading old vectors from job with title :



   Time after variat. SCF:      5.2
   Time prior to 1st pass:      5.2

 Grid_pts file          = ./h2o-namd.gridpts.00
 Record size in doubles =  12289        No. of grid_pts per rec  =   3070
 Max. records in memory =      3        Max. recs in file   =  84437568


           Memory utilization after 1st SCF pass: 
           Heap Space remaining (MW):        0.00                  26
          Stack Space remaining (MW):       26.21            26213852

   convergence    iter        energy       DeltaE   RMS-Dens  Diis-err    time
 ---------------- ----- ----------------- --------- --------- ---------  ------
 d= 0,ls=0.0,diis     1    -76.4089543949 -8.55D+01  3.37D-05  2.97D-07     5.2
 d= 0,ls=0.0,diis     2    -76.4089544265 -3.16D-08  1.41D-05  1.97D-07     5.2
 d= 0,ls=0.0,diis     3    -76.4089544412 -1.47D-08  4.47D-06  2.76D-08     5.3


         Total DFT energy =      -76.408954441215
      One electron energy =     -122.933530312076
           Coulomb energy =       46.781652011698
    Exchange-Corr. energy =       -9.343169608201
 Nuclear repulsion energy =        9.086093467364

 Numeric. integr. density =       10.000001090638

     Total iterative time =      0.1s



                       DFT Final Molecular Orbital Analysis
                       ------------------------------------

 Vector    1  Occ=2.000000D+00  E=-1.913821D+01
              MO Center=  9.1D-19, -1.4D-05,  1.2D-01, r^2= 1.5D-02
   Bfn.  Coefficient  Atom+Function         Bfn.  Coefficient  Atom+Function  
  ----- ------------  ---------------      ----- ------------  ---------------
     1      0.992860  1 O  s                  2      0.026224  1 O  s          

 Vector    2  Occ=2.000000D+00  E=-9.978244D-01
              MO Center= -1.3D-15, -1.3D-04, -8.8D-02, r^2= 5.1D-01
   Bfn.  Coefficient  Atom+Function         Bfn.  Coefficient  Atom+Function  
  ----- ------------  ---------------      ----- ------------  ---------------
     2      0.469216  1 O  s                  6      0.439593  1 O  s          
     1     -0.209504  1 O  s                 16      0.139050  2 H  s          
    18      0.139164  3 H  s                  5     -0.127673  1 O  pz         
     9     -0.060674  1 O  pz         

 Vector    3  Occ=2.000000D+00  E=-5.170428D-01
              MO Center=  6.3D-17,  1.7D-04, -1.1D-01, r^2= 7.9D-01
   Bfn.  Coefficient  Atom+Function         Bfn.  Coefficient  Atom+Function  
  ----- ------------  ---------------      ----- ------------  ---------------
     4      0.517421  1 O  py                 8      0.269806  1 O  py         
    16      0.237406  2 H  s                 18     -0.237424  3 H  s          
    17      0.142029  2 H  s                 19     -0.141993  3 H  s          
    14     -0.071488  1 O  dyz        

 Vector    4  Occ=2.000000D+00  E=-3.722400D-01
              MO Center=  2.7D-16,  3.9D-05,  2.0D-01, r^2= 7.0D-01
   Bfn.  Coefficient  Atom+Function         Bfn.  Coefficient  Atom+Function  
  ----- ------------  ---------------      ----- ------------  ---------------
     5      0.551770  1 O  pz                 6      0.410450  1 O  s          
     9      0.372096  1 O  pz                 2      0.177275  1 O  s          
    16     -0.143793  2 H  s                 18     -0.143739  3 H  s          
    17     -0.114375  2 H  s                 19     -0.114294  3 H  s          
     1     -0.088106  1 O  s                 15     -0.052420  1 O  dzz        

 Vector    5  Occ=2.000000D+00  E=-2.911828D-01
              MO Center=  9.0D-16, -2.1D-05,  9.9D-02, r^2= 6.0D-01
   Bfn.  Coefficient  Atom+Function         Bfn.  Coefficient  Atom+Function  
  ----- ------------  ---------------      ----- ------------  ---------------
     3      0.644585  1 O  px                 7      0.506040  1 O  px         
    12     -0.061371  1 O  dxz        

 Vector    6  Occ=0.000000D+00  E= 6.254974D-02
              MO Center=  8.3D-17,  1.0D-03, -6.2D-01, r^2= 2.4D+00
   Bfn.  Coefficient  Atom+Function         Bfn.  Coefficient  Atom+Function  
  ----- ------------  ---------------      ----- ------------  ---------------
     6      1.257364  1 O  s                 17     -0.969373  2 H  s          
    19     -0.968333  3 H  s                  9     -0.477550  1 O  pz         
     5     -0.280791  1 O  pz                 2      0.119305  1 O  s          
     1     -0.100627  1 O  s                 16     -0.096429  2 H  s          
    18     -0.096208  3 H  s                 10     -0.058023  1 O  dxx        

 Vector    7  Occ=0.000000D+00  E= 1.480541D-01
              MO Center=  1.2D-17, -1.2D-03, -5.7D-01, r^2= 2.5D+00
   Bfn.  Coefficient  Atom+Function         Bfn.  Coefficient  Atom+Function  
  ----- ------------  ---------------      ----- ------------  ---------------
    17      1.276616  2 H  s                 19     -1.278209  3 H  s          
     8     -0.758674  1 O  py                 4     -0.413521  1 O  py         
    16      0.107446  2 H  s                 18     -0.107429  3 H  s          
    14      0.031911  1 O  dyz        

 Vector    8  Occ=0.000000D+00  E= 7.723209D-01
              MO Center=  1.9D-17,  2.0D-03, -1.5D-01, r^2= 1.6D+00
   Bfn.  Coefficient  Atom+Function         Bfn.  Coefficient  Atom+Function  
  ----- ------------  ---------------      ----- ------------  ---------------
    16      0.841266  2 H  s                 18     -0.839089  3 H  s          
    17     -0.657009  2 H  s                 19      0.654819  3 H  s          
     8     -0.429769  1 O  py                14     -0.339485  1 O  dyz        
     4     -0.172268  1 O  py         

 Vector    9  Occ=0.000000D+00  E= 8.608072D-01
              MO Center= -3.8D-15, -1.5D-03, -2.2D-01, r^2= 1.3D+00
   Bfn.  Coefficient  Atom+Function         Bfn.  Coefficient  Atom+Function  
  ----- ------------  ---------------      ----- ------------  ---------------
    18      0.713238  3 H  s                  5      0.707438  1 O  pz         
    16      0.710862  2 H  s                 17     -0.552116  2 H  s          
    19     -0.553006  3 H  s                  9     -0.382814  1 O  pz         
    13      0.153242  1 O  dyy                6      0.136957  1 O  s          
     2     -0.136225  1 O  s                 10     -0.119515  1 O  dxx        

 Vector   10  Occ=0.000000D+00  E= 8.907772D-01
              MO Center=  4.9D-15, -1.4D-05,  1.2D-01, r^2= 1.1D+00
   Bfn.  Coefficient  Atom+Function         Bfn.  Coefficient  Atom+Function  
  ----- ------------  ---------------      ----- ------------  ---------------
     7     -1.038626  1 O  px                 3      0.959430  1 O  px         
    12      0.028422  1 O  dxz        

 Vector   11  Occ=0.000000D+00  E= 8.950886D-01
              MO Center= -5.9D-16,  3.1D-04,  3.2D-01, r^2= 1.4D+00
   Bfn.  Coefficient  Atom+Function         Bfn.  Coefficient  Atom+Function  
  ----- ------------  ---------------      ----- ------------  ---------------
     6      1.411038  1 O  s                  2     -0.836392  1 O  s          
     9      0.827444  1 O  pz                 5     -0.558789  1 O  pz         
    16      0.466888  2 H  s                 18      0.467437  3 H  s          
    17     -0.373414  2 H  s                 19     -0.373081  3 H  s          
    10     -0.327494  1 O  dxx               15     -0.276988  1 O  dzz        

 Vector   12  Occ=0.000000D+00  E= 1.065730D+00
              MO Center=  8.4D-18, -3.4D-04,  1.0D-01, r^2= 1.5D+00
   Bfn.  Coefficient  Atom+Function         Bfn.  Coefficient  Atom+Function  
  ----- ------------  ---------------      ----- ------------  ---------------
     8      1.627917  1 O  py                 4     -0.989174  1 O  py         
    17     -0.925833  2 H  s                 19      0.926531  3 H  s          
    14      0.027924  1 O  dyz        

 Vector   13  Occ=0.000000D+00  E= 1.193474D+00
              MO Center= -8.4D-16, -1.8D-04, -3.7D-01, r^2= 1.4D+00
   Bfn.  Coefficient  Atom+Function         Bfn.  Coefficient  Atom+Function  
  ----- ------------  ---------------      ----- ------------  ---------------
     6      3.595703  1 O  s                  2     -1.457105  1 O  s          
     9     -1.105922  1 O  pz                17     -0.772224  2 H  s          
    19     -0.773269  3 H  s                 13     -0.657496  1 O  dyy        
     5      0.402695  1 O  pz                15     -0.393303  1 O  dzz        
    16     -0.352457  2 H  s                 18     -0.352365  3 H  s          

 Vector   14  Occ=0.000000D+00  E= 1.729088D+00
              MO Center=  2.3D-17, -7.1D-06,  1.7D-01, r^2= 6.2D-01
   Bfn.  Coefficient  Atom+Function         Bfn.  Coefficient  Atom+Function  
  ----- ------------  ---------------      ----- ------------  ---------------
    15      1.006896  1 O  dzz               13     -0.596193  1 O  dyy        
    10     -0.343607  1 O  dxx                6     -0.252254  1 O  s          
     9      0.143521  1 O  pz                 2      0.090085  1 O  s          
    16      0.081670  2 H  s                 18      0.081653  3 H  s          
    17      0.042212  2 H  s                 19      0.042261  3 H  s          

 Vector   15  Occ=0.000000D+00  E= 1.746425D+00
              MO Center= -7.7D-17,  3.1D-06,  1.2D-01, r^2= 6.1D-01
   Bfn.  Coefficient  Atom+Function         Bfn.  Coefficient  Atom+Function  
  ----- ------------  ---------------      ----- ------------  ---------------
    11      1.732051  1 O  dxy        

 Vector   16  Occ=0.000000D+00  E= 1.779812D+00
              MO Center= -1.9D-17, -2.6D-05,  1.4D-01, r^2= 6.1D-01
   Bfn.  Coefficient  Atom+Function         Bfn.  Coefficient  Atom+Function  
  ----- ------------  ---------------      ----- ------------  ---------------
    12      1.730730  1 O  dxz                7      0.035001  1 O  px         

 Vector   17  Occ=0.000000D+00  E= 2.280369D+00
              MO Center= -1.3D-16,  2.1D-04,  2.3D-03, r^2= 8.3D-01
   Bfn.  Coefficient  Atom+Function         Bfn.  Coefficient  Atom+Function  
  ----- ------------  ---------------      ----- ------------  ---------------
     6      1.538286  1 O  s                 10     -1.131173  1 O  dxx        
    16     -0.812543  2 H  s                 18     -0.811549  3 H  s          
     9     -0.738993  1 O  pz                13      0.735867  1 O  dyy        
     2     -0.514900  1 O  s                 17     -0.141102  2 H  s          
    19     -0.141499  3 H  s                 15      0.071059  1 O  dzz        

 Vector   18  Occ=0.000000D+00  E= 2.576787D+00
              MO Center= -1.3D-17, -1.6D-04,  6.3D-02, r^2= 8.6D-01
   Bfn.  Coefficient  Atom+Function         Bfn.  Coefficient  Atom+Function  
  ----- ------------  ---------------      ----- ------------  ---------------
    14      2.203006  1 O  dyz               16      0.922095  2 H  s          
    18     -0.924079  3 H  s                  8     -0.841841  1 O  py         
    17     -0.050629  2 H  s                 19      0.050157  3 H  s          
     4      0.037094  1 O  py         

 Vector   19  Occ=0.000000D+00  E= 3.551787D+00
              MO Center=  1.9D-17,  7.7D-07,  1.2D-01, r^2= 1.0D+00
   Bfn.  Coefficient  Atom+Function         Bfn.  Coefficient  Atom+Function  
  ----- ------------  ---------------      ----- ------------  ---------------
     6      3.689054  1 O  s                 10     -1.578732  1 O  dxx        
    15     -1.549532  1 O  dzz               13     -1.525986  1 O  dyy        
    17     -0.554170  2 H  s                 19     -0.554550  3 H  s          
     1     -0.467928  1 O  s                  9     -0.334025  1 O  pz         
     2      0.286818  1 O  s                  5      0.116592  1 O  pz         


 center of mass
 --------------
 x =  -0.00000000 y =  -0.00000000 z =   0.09958204

 moments of inertia (a.u.)
 ------------------
           6.468171428215          -0.000000000000          -0.000000000000
          -0.000000000000           2.293151829887           0.000979850211
          -0.000000000000           0.000979850211           4.175019598328

     Multipole analysis of the density
     ---------------------------------

     L   x y z        total         alpha         beta         nuclear
     -   - - -        -----         -----         ----         -------
     0   0 0 0     -0.000000     -5.000000     -5.000000     10.000000

     1   1 0 0      0.000000      0.000000      0.000000     -0.000000
     1   0 1 0      0.000051     -0.000081     -0.000081      0.000213
     1   0 0 1     -0.824497     -0.411671     -0.411671     -0.001154

     2   2 0 0     -5.356155     -2.678077     -2.678077      0.000000
     2   1 1 0      0.000000      0.000000      0.000000      0.000000
     2   1 0 1     -0.000000     -0.000000     -0.000000      0.000000
     2   0 2 0     -3.187359     -3.664981     -3.664981      4.142604
     2   0 1 1     -0.000283      0.000320      0.000320     -0.000924
     2   0 0 2     -4.452794     -3.251230     -3.251230      2.049666

                                NWChem TDDFT Module
                                -------------------


            General Information
            -------------------
           No. of orbitals :      38
            Alpha orbitals :      19
             Beta orbitals :      19
        Alpha frozen cores :       0
         Beta frozen cores :       0
     Alpha frozen virtuals :       0
      Beta frozen virtuals :       0
         Spin multiplicity :       1
    Number of AO functions :      19
        Use of symmetry is : off
      Symmetry adaption is : off
         Schwarz screening :  0.10D-07

              XC Information
              --------------
                  B3LYP Method XC Potential
              Hartree-Fock (Exact) Exchange   0.20          
                 Slater Exchange Functional   0.80 local    
             Becke 1988 Exchange Functional   0.72 non-local
       Lee-Yang-Parr Correlation Functional   0.81          
           VWN I RPA Correlation Functional   0.19 local    

             TDDFT Information
             -----------------
          Calculation type : Tamm-Dancoff TDDFT
         Wavefunction type : Restricted singlets
          No. of electrons :      10
           Alpha electrons :       5
            Beta electrons :       5
              No. of roots :      10
          Max subspacesize :    6000
            Max iterations :     100
               Target root :       3
           Target symmetry : none
      Symmetry restriction : off
                 Algorithm : Optimal
        Davidson threshold :  0.10D-03

            Memory Information
            ------------------
          Available GA space size is         629144517 doubles
          Available MA space size is          18872380 doubles
          Length of a trial vector is           70
          Algorithm : Incore multiple tensor contraction
          Estimated peak GA usage is           1290663 doubles
          Estimated peak MA usage is             51000 doubles

   10 smallest eigenvalue differences (eV) 
--------------------------------------------------------
  No. Spin  Occ  Vir  Irrep   E(Occ)    E(Vir)   E(Diff)
--------------------------------------------------------
    1    1    5    6 a        -0.291     0.063     9.626
    2    1    4    6 a        -0.372     0.063    11.831
    3    1    5    7 a        -0.291     0.148    11.952
    4    1    4    7 a        -0.372     0.148    14.158
    5    1    3    6 a        -0.517     0.063    15.772
    6    1    3    7 a        -0.517     0.148    18.098
    7    1    2    6 a        -0.998     0.063    28.854
    8    1    5    8 a        -0.291     0.772    28.939
    9    1    4    8 a        -0.372     0.772    31.145
   10    1    2    7 a        -0.998     0.148    31.181
--------------------------------------------------------

  Entering Davidson iterations
  Restricted singlet excited states

  Iter   NTrls   NConv    DeltaV     DeltaE      Time   
  ----  ------  ------  ---------  ---------  --------- 
    1     10       0     0.24E+00   0.10+100        0.3
    2     20       0     0.26E-01   0.62E-01        0.3
    3     30       4     0.49E-02   0.96E-03        0.3
    4     36       8     0.20E+00   0.37E-01        0.2
    5     38       9     0.15E-01   0.13E-01        0.1
    6     39       9     0.77E-02   0.16E-03        0.1
    7     40       9     0.56E-03   0.21E-04        0.1
    8     41       9     0.11E-03   0.11E-06        0.1
    9     42      10     0.54E-04   0.71E-08        0.1
  ----  ------  ------  ---------  ---------  --------- 
  Convergence criterion met

  Ground state a         -76.408954441215 a.u.

  ----------------------------------------------------------------------------
  Root   1 singlet a              0.292024263 a.u.                7.9464 eV 
  ----------------------------------------------------------------------------
     Transition Moments    X  0.25882   Y -0.00000   Z -0.00000
     Transition Moments   XX -0.00000  XY  0.00003  XZ -0.06146
     Transition Moments   YY -0.00000  YZ  0.00000  ZZ  0.00000
     Dipole Oscillator Strength                    0.0130412060
     Electric Quadrupole                           0.0000000005
     Magnetic Dipole                               0.0000001239
     Total Oscillator Strength                     0.0130413304

     Occ.    5  a   ---  Virt.    6  a        0.99953
  ----------------------------------------------------------------------------
  Root   2 singlet a              0.365444864 a.u.                9.9443 eV 
  ----------------------------------------------------------------------------
     Transition Moments    X  0.00032   Y -0.00000   Z  0.00000
     Transition Moments   XX -0.00000  XY -0.22146  XZ -0.00010
     Transition Moments   YY -0.00000  YZ  0.00000  ZZ -0.00000
     Dipole Oscillator Strength                    0.0000000251
     Electric Quadrupole                           0.0000000127
     Magnetic Dipole                               0.0000003616
     Total Oscillator Strength                     0.0000003995

     Occ.    5  a   ---  Virt.    7  a        0.99937
  ----------------------------------------------------------------------------
  Root   3 singlet a              0.388835034 a.u.               10.5807 eV 
  ----------------------------------------------------------------------------
     Transition Moments    X -0.00000   Y -0.00047   Z  0.63294
     Transition Moments   XX -0.10891  XY -0.00000  XZ -0.00000
     Transition Moments   YY -0.68950  YZ  0.00039  ZZ -0.46230
     Dipole Oscillator Strength                    0.1038471632
     Electric Quadrupole                           0.0000000268
     Magnetic Dipole                               0.0000000000
     Total Oscillator Strength                     0.1038471900

     Occ.    3  a   ---  Virt.    7  a       -0.14560
     Occ.    4  a   ---  Virt.    6  a        0.98688
  ----------------------------------------------------------------------------
  Root   4 singlet a              0.468431740 a.u.               12.7467 eV 
  ----------------------------------------------------------------------------
     Transition Moments    X  0.00000   Y  0.50158   Z  0.00033
     Transition Moments   XX -0.00005  XY -0.00000  XZ  0.00000
     Transition Moments   YY  0.00004  YZ -0.56613  ZZ -0.00025
     Dipole Oscillator Strength                    0.0785667391
     Electric Quadrupole                           0.0000001754
     Magnetic Dipole                               0.0000005876
     Total Oscillator Strength                     0.0785675022

     Occ.    3  a   ---  Virt.    6  a       -0.22180
     Occ.    4  a   ---  Virt.    7  a        0.97292
  ----------------------------------------------------------------------------
  Root   5 singlet a              0.535856824 a.u.               14.5814 eV 
  ----------------------------------------------------------------------------
     Transition Moments    X  0.00000   Y -1.12782   Z  0.00040
     Transition Moments   XX -0.00008  XY  0.00000  XZ  0.00000
     Transition Moments   YY -0.00097  YZ  1.01006  ZZ -0.00054
     Dipole Oscillator Strength                    0.4544025152
     Electric Quadrupole                           0.0000008359
     Magnetic Dipole                               0.0000000245
     Total Oscillator Strength                     0.4544033756

     Occ.    3  a   ---  Virt.    6  a       -0.97375
     Occ.    4  a   ---  Virt.    7  a       -0.21943
  ----------------------------------------------------------------------------
  Root   6 singlet a              0.664422186 a.u.               18.0799 eV 
  ----------------------------------------------------------------------------
     Transition Moments    X  0.00000   Y -0.00006   Z  0.76680
     Transition Moments   XX -0.09950  XY -0.00000  XZ  0.00000
     Transition Moments   YY -2.01149  YZ  0.00029  ZZ -0.65448
     Dipole Oscillator Strength                    0.2604455125
     Electric Quadrupole                           0.0000015112
     Magnetic Dipole                               0.0000000000
     Total Oscillator Strength                     0.2604470237

     Occ.    2  a   ---  Virt.    6  a        0.09771
     Occ.    3  a   ---  Virt.    7  a        0.96320
     Occ.    4  a   ---  Virt.    6  a        0.12702
     Occ.    4  a   ---  Virt.    9  a        0.09215
     Occ.    4  a   ---  Virt.   11  a       -0.08291
     Occ.    5  a   ---  Virt.   10  a        0.16017
  ----------------------------------------------------------------------------
  Root   7 singlet a              0.976200160 a.u.               26.5638 eV 
  ----------------------------------------------------------------------------
     Transition Moments    X -0.00049   Y -0.00000   Z -0.00000
     Transition Moments   XX  0.00000  XY -0.49725  XZ -0.00017
     Transition Moments   YY  0.00000  YZ  0.00000  ZZ  0.00000
     Dipole Oscillator Strength                    0.0000001594
     Electric Quadrupole                           0.0000012249
     Magnetic Dipole                               0.0000007266
     Total Oscillator Strength                     0.0000021108

     Occ.    5  a   ---  Virt.    8  a       -0.99964
  ----------------------------------------------------------------------------
  Root   8 singlet a              1.020089985 a.u.               27.7581 eV 
  ----------------------------------------------------------------------------
     Transition Moments    X  0.00000   Y  0.00009   Z -0.22317
     Transition Moments   XX -0.25962  XY -0.00000  XZ  0.00000
     Transition Moments   YY  0.84727  YZ -0.00041  ZZ  0.49633
     Dipole Oscillator Strength                    0.0338710289
     Electric Quadrupole                           0.0000018087
     Magnetic Dipole                               0.0000000000
     Total Oscillator Strength                     0.0338728376

     Occ.    2  a   ---  Virt.    6  a        0.93756
     Occ.    4  a   ---  Virt.    9  a       -0.08281
     Occ.    5  a   ---  Virt.   10  a       -0.32937
  ----------------------------------------------------------------------------
  Root   9 singlet a              1.057537758 a.u.               28.7771 eV 
  ----------------------------------------------------------------------------
     Transition Moments    X -0.41713   Y -0.00000   Z -0.00000
     Transition Moments   XX -0.00000  XY  0.00059  XZ -0.40207
     Transition Moments   YY  0.00000  YZ -0.00000  ZZ  0.00000
     Dipole Oscillator Strength                    0.1226703590
     Electric Quadrupole                           0.0000010182
     Magnetic Dipole                               0.0000002676
     Total Oscillator Strength                     0.1226716448

     Occ.    5  a   ---  Virt.    9  a       -0.88913
     Occ.    5  a   ---  Virt.   11  a        0.45233
     Occ.    5  a   ---  Virt.   13  a       -0.05948
  ----------------------------------------------------------------------------
  Root  10 singlet a              1.084253686 a.u.               29.5041 eV 
  ----------------------------------------------------------------------------
     Transition Moments    X  0.00000   Y  0.47764   Z  0.00030
     Transition Moments   XX -0.00057  XY -0.00000  XZ  0.00000
     Transition Moments   YY -0.00026  YZ -0.30262  ZZ -0.00030
     Dipole Oscillator Strength                    0.1649080835
     Electric Quadrupole                           0.0000006216
     Magnetic Dipole                               0.0000018075
     Total Oscillator Strength                     0.1649105126

     Occ.    2  a   ---  Virt.    7  a       -0.78530
     Occ.    3  a   ---  Virt.    9  a        0.11242
     Occ.    3  a   ---  Virt.   11  a        0.06316
     Occ.    4  a   ---  Virt.    8  a        0.60458

              Target root =      3
          Target symmetry = none
      Ground state energy =    -76.408954441215
        Excitation energy =      0.388835033755
     Excited state energy =    -76.020119407460

  stored tddft:energy   -76.020119407460143     
 fn_civecs: ./h2o-namd.civecs_singlet                                                                                                                                                                                                                                       

  CI vectors are stored in ./h2o-namd.civecs_singlet       


                           NWChem TDDFT Gradient Module
                           ----------------------------


 ./h2o-namd.civecs_singlet                                                                                                                                                                                                                                      
 Calculated gradients of:
 Number of Singlet roots   1
 Singlet roots    3

 Start at time  cpu:        5.2s  wall:        7.2s

 nroot:                     1
TDDFT Energy Check(  1) =       0.38883503376571
  0 tda  T
  0 tda  T
  0 tda  T
  0 tda  T
  0 tda  T
  0 tda  T
  0 tda  T
  0 tda  T
  0 tda  T
  0 tda  T
  0 tda  T
  0 tda  T
  2 tda  T
  2 tda  T
  2 tda  T
  2 tda  T
  2 tda  T
  2 tda  T
  2 tda  T
  2 tda  T
  2 tda  T
  2 tda  T
  2 tda  T
  2 tda  T


Iterative solution of linear equations
  No. of variables       70
  No. of equations        1
  Maximum subspace       40
        Iterations      250
       Convergence  1.0D-04
        Start time      7.7


   iter   nsub   residual    time
   ----  ------  --------  ---------
     1      1    7.26D-01       7.8
     2      2    9.33D-02       7.9
     3      3    1.17D-02       8.0
     4      4    3.92D-04       8.1
     5      5    1.18D-05       8.2

     Multipole analysis of the density
     ---------------------------------

     L   x y z        total
     -   - - -        -----
     0   0 0 0     -0.000000

     1   1 0 0      0.000000
     1   0 1 0     -0.001133
     1   0 0 1      0.178766

     2   2 0 0     -6.155869
     2   1 1 0      0.000000
     2   1 0 1      0.000000
     2   0 2 0     -6.292465
     2   0 1 1      0.001998
     2   0 0 2     -5.776229


     No. of electrons (tr(P*S)):     0.1000000E+02



                         Root   3

                         TDDFT ENERGY GRADIENTS

    atom               coordinates                        gradient
                 x          y          z           x          y          z
   1 O       0.000000  -0.000027   0.226251   -0.000000  -0.000119   0.010214
   2 H      -0.000000   1.439417  -0.905749    0.000000  -0.096790  -0.005140
   3 H      -0.000000  -1.438987  -0.905411   -0.000000   0.096909  -0.005071

 TDDFT Gradient time  cpu:        1.2s  wall:        1.4s
 int_1eov: WARNING: possible geometry inconsistency
 i_basis geometry handle:                    2
 int_1eov: WARNING: possible geometry inconsistency
 i_basis geometry handle:                    2
 j_basis geometry handle:                    1
 int_1eov: WARNING: possible geometry inconsistency
 i_basis geometry handle:                    2
 j_basis geometry handle:                    1
 int_1eov: WARNING: possible geometry inconsistency
 i_basis geometry handle:                    2
 j_basis geometry handle:                    1
 int_1eov: WARNING: possible geometry inconsistency
 i_basis geometry handle:                    2
 j_basis geometry handle:                    1
 int_1eov: WARNING: possible geometry inconsistency
 i_basis geometry handle:                    2
 j_basis geometry handle:                    1
 int_1eov: WARNING: possible geometry inconsistency
 i_basis geometry handle:                    2
 j_basis geometry handle:                    1
 int_1eov: WARNING: possible geometry inconsistency
 i_basis geometry handle:                    2
 j_basis geometry handle:                    1
 int_1eov: WARNING: possible geometry inconsistency
 i_basis geometry handle:                    2
 j_basis geometry handle:                    1
 int_1eov: WARNING: possible geometry inconsistency
 i_basis geometry handle:                    2
 j_basis geometry handle:                    1
 int_1eov: WARNING: possible geometry inconsistency
 i_basis geometry handle:                    2
 j_basis geometry handle:                    1
 int_1eov: WARNING: possible geometry inconsistency
 i_basis geometry handle:                    2
 j_basis geometry handle:                    1
 j_basis geometry handle:                    1


            QMD Run Information
            -------------------
  Time elapsed (fs) :                     0.012094
  Kin. energy (a.u.):        1            0.002114
  Pot. energy (a.u.):        1          -76.020119
  Tot. energy (a.u.):        1          -76.018005
  Target temp. (K)  :        1              300.00
  Current temp. (K) :        1              445.03
  Current state     :        1                   3
  Dipole (a.u.)     :        1   2.581621E-15  -1.133155E-03   1.787662E-01



                                 NWChem DFT Module
                                 -----------------




 Summary of "ao basis" -> "ao basis" (cartesian)
 ------------------------------------------------------------------------------
       Tag                 Description            Shells   Functions and Types
 ---------------- ------------------------------  ------  ---------------------
 O                           6-31G*                  6       15   3s2p1d
 H                           6-31G*                  2        2   2s


  Caching 1-el integrals 

            General Information
            -------------------
          SCF calculation type: DFT
          Wavefunction type:  closed shell.
          No. of atoms     :     3
          No. of electrons :    10
           Alpha electrons :     5
            Beta electrons :     5
          Charge           :     0
          Spin multiplicity:     1
          Use of symmetry is: off; symmetry adaption is: off
          Maximum number of iterations:  50
          AO basis - number of functions:    19
                     number of shells:    10
          Convergence on energy requested:  1.00D-06
          Convergence on density requested:  1.00D-05
          Convergence on gradient requested:  5.00D-04

              XC Information
              --------------
                         B3LYP Method XC Potential
                     Hartree-Fock (Exact) Exchange  0.200          
                        Slater Exchange Functional  0.800 local    
                    Becke 1988 Exchange Functional  0.720 non-local
              Lee-Yang-Parr Correlation Functional  0.810          
                  VWN I RPA Correlation Functional  0.190 local    

             Grid Information
             ----------------
          Grid used for XC integration:  medium    
          Radial quadrature: Mura-Knowles        
          Angular quadrature: Lebedev. 
          Tag              B.-S. Rad. Rad. Pts. Rad. Cut. Ang. Pts.
          ---              ---------- --------- --------- ---------
          O                   0.60       49           5.0       434
          H                   0.35       45           6.0       434
          Grid pruning is: on 
          Number of quadrature shells:   139
          Spatial weights used:  Erf1

          Convergence Information
          -----------------------
          Convergence aids based upon iterative change in 
          total energy or number of iterations. 
          Levelshifting, if invoked, occurs when the 
          HOMO/LUMO gap drops below (HL_TOL):  1.00D-02
          DIIS, if invoked, will attempt to extrapolate 
          using up to (NFOCK): 10 stored Fock matrices.

                    Damping( 0%)  Levelshifting(0.5)       DIIS
                  --------------- ------------------- ---------------
          dE  on:    start            ASAP                start   
          dE off:    2 iters         50 iters            50 iters 


      Screening Tolerance Information
      -------------------------------
          Density screening/tol_rho:  1.00D-10
          AO Gaussian exp screening on grid/accAOfunc:  14
          CD Gaussian exp screening on grid/accCDfunc:  20
          XC Gaussian exp screening on grid/accXCfunc:  20
          Schwarz screening/accCoul:  1.00D-08


 Loading old vectors from job with title :



   Time after variat. SCF:      9.1
   Time prior to 1st pass:      9.1

 Grid_pts file          = ./h2o-namd.gridpts.00
 Record size in doubles =  12289        No. of grid_pts per rec  =   3070
 Max. records in memory =      3        Max. recs in file   =  84437568


           Memory utilization after 1st SCF pass: 
           Heap Space remaining (MW):        0.00                  26
          Stack Space remaining (MW):       26.21            26213852

   convergence    iter        energy       DeltaE   RMS-Dens  Diis-err    time
 ---------------- ----- ----------------- --------- --------- ---------  ------
 d= 0,ls=0.0,diis     1    -76.4089540472 -8.55D+01  3.33D-05  2.96D-07     9.1
 d= 0,ls=0.0,diis     2    -76.4089540792 -3.21D-08  1.40D-05  1.88D-07     9.2
 d= 0,ls=0.0,diis     3    -76.4089540931 -1.38D-08  4.58D-06  2.88D-08     9.2


         Total DFT energy =      -76.408954093095
      One electron energy =     -122.929834047441
           Coulomb energy =       46.779792561812
    Exchange-Corr. energy =       -9.342958199845
 Nuclear repulsion energy =        9.084045592378

 Numeric. integr. density =       10.000001086742

     Total iterative time =      0.1s



                       DFT Final Molecular Orbital Analysis
                       ------------------------------------

 Vector    1  Occ=2.000000D+00  E=-1.913825D+01
              MO Center=  1.6D-19, -2.8D-05,  1.2D-01, r^2= 1.5D-02
   Bfn.  Coefficient  Atom+Function         Bfn.  Coefficient  Atom+Function  
  ----- ------------  ---------------      ----- ------------  ---------------
     1      0.992860  1 O  s                  2      0.026224  1 O  s          

 Vector    2  Occ=2.000000D+00  E=-9.977417D-01
              MO Center= -3.2D-15, -2.6D-04, -8.8D-02, r^2= 5.1D-01
   Bfn.  Coefficient  Atom+Function         Bfn.  Coefficient  Atom+Function  
  ----- ------------  ---------------      ----- ------------  ---------------
[...]
     2   0 2 0     -3.173309     -3.725433     -3.725433      4.277558
     2   0 1 1     -0.013219      0.015193      0.015193     -0.043606
     2   0 0 2     -4.453292     -3.287063     -3.287063      2.120834

                                NWChem TDDFT Module
                                -------------------


            General Information
            -------------------
           No. of orbitals :      38
            Alpha orbitals :      19
             Beta orbitals :      19
        Alpha frozen cores :       0
         Beta frozen cores :       0
     Alpha frozen virtuals :       0
      Beta frozen virtuals :       0
         Spin multiplicity :       1
    Number of AO functions :      19
        Use of symmetry is : off
      Symmetry adaption is : off
         Schwarz screening :  0.10D-07

              XC Information
              --------------
                  B3LYP Method XC Potential
              Hartree-Fock (Exact) Exchange   0.20          
                 Slater Exchange Functional   0.80 local    
             Becke 1988 Exchange Functional   0.72 non-local
       Lee-Yang-Parr Correlation Functional   0.81          
           VWN I RPA Correlation Functional   0.19 local    

             TDDFT Information
             -----------------
          Calculation type : Tamm-Dancoff TDDFT
         Wavefunction type : Restricted singlets
          No. of electrons :      10
           Alpha electrons :       5
            Beta electrons :       5
              No. of roots :      10
          Max subspacesize :    6000
            Max iterations :     100
               Target root :       3
           Target symmetry : none
      Symmetry restriction : off
                 Algorithm : Optimal
        Davidson threshold :  0.10D-03

            Memory Information
            ------------------
          Available GA space size is         629144517 doubles
          Available MA space size is          18872380 doubles
          Length of a trial vector is           70
          Algorithm : Incore multiple tensor contraction
          Estimated peak GA usage is           1290663 doubles
          Estimated peak MA usage is             51000 doubles

   10 smallest eigenvalue differences (eV) 
--------------------------------------------------------
  No. Spin  Occ  Vir  Irrep   E(Occ)    E(Vir)   E(Diff)
--------------------------------------------------------
    1    1    5    6 a        -0.290     0.058     9.472
    2    1    4    6 a        -0.371     0.058    11.682
    3    1    5    7 a        -0.290     0.142    11.765
    4    1    4    7 a        -0.371     0.142    13.975
    5    1    3    6 a        -0.511     0.058    15.484
    6    1    3    7 a        -0.511     0.142    17.777
    7    1    2    6 a        -0.991     0.058    28.549
    8    1    5    8 a        -0.290     0.765    28.709
    9    1    2    7 a        -0.991     0.142    30.842
   10    1    5    9 a        -0.290     0.845    30.897
--------------------------------------------------------

  Entering Davidson iterations
  Restricted singlet excited states

  Iter   NTrls   NConv    DeltaV     DeltaE      Time   
  ----  ------  ------  ---------  ---------  --------- 
    1     10       0     0.24E+00   0.10+100        0.3
    2     20       0     0.46E-01   0.56E-01        0.3
    3     30       2     0.73E-02   0.13E-02        0.3
    4     38       7     0.19E-02   0.43E-04        0.3
    5     41       9     0.18E-03   0.14E-05        0.2
    6     42      10     0.56E-04   0.10E-07        0.1
  ----  ------  ------  ---------  ---------  --------- 
  Convergence criterion met

  Ground state a         -76.408413235465 a.u.

  ----------------------------------------------------------------------------
  Root   1 singlet a              0.286049891 a.u.                7.7838 eV 
  ----------------------------------------------------------------------------
     Transition Moments    X -0.24859   Y -0.00000   Z  0.00000
     Transition Moments   XX -0.00000  XY -0.00127  XZ  0.05397
     Transition Moments   YY -0.00000  YZ  0.00000  ZZ -0.00000
     Dipole Oscillator Strength                    0.0117848286
     Electric Quadrupole                           0.0000000004
     Magnetic Dipole                               0.0000001423
     Total Oscillator Strength                     0.0117849713

     Occ.    5  a   ---  Virt.    6  a       -0.99949
  ----------------------------------------------------------------------------
  Root   2 singlet a              0.358171660 a.u.                9.7464 eV 
  ----------------------------------------------------------------------------
     Transition Moments    X  0.01457   Y  0.00000   Z -0.00000
     Transition Moments   XX  0.00000  XY -0.20765  XZ -0.00436
     Transition Moments   YY -0.00000  YZ -0.00000  ZZ  0.00000
     Dipole Oscillator Strength                    0.0000506838
     Electric Quadrupole                           0.0000000106
     Magnetic Dipole                               0.0000003886
     Total Oscillator Strength                     0.0000510829

     Occ.    5  a   ---  Virt.    7  a        0.99933
  ----------------------------------------------------------------------------
  Root   3 singlet a              0.384448371 a.u.               10.4614 eV 
  ----------------------------------------------------------------------------
     Transition Moments    X  0.00000   Y  0.02188   Z -0.63781
     Transition Moments   XX  0.11309  XY -0.00000  XZ  0.00000
     Transition Moments   YY  0.72315  YZ -0.01829  ZZ  0.46774
     Dipole Oscillator Strength                    0.1043870100
     Electric Quadrupole                           0.0000000285
     Magnetic Dipole                               0.0000000013
     Total Oscillator Strength                     0.1043870398

     Occ.    3  a   ---  Virt.    7  a        0.15715
     Occ.    4  a   ---  Virt.    6  a       -0.98485
  ----------------------------------------------------------------------------
  Root   4 singlet a              0.461817853 a.u.               12.5667 eV 
  ----------------------------------------------------------------------------
     Transition Moments    X -0.00000   Y  0.48975   Z  0.01608
     Transition Moments   XX -0.00275  XY  0.00000  XZ  0.00000
     Transition Moments   YY -0.00035  YZ -0.55711  ZZ -0.01277
     Dipole Oscillator Strength                    0.0739260503
     Electric Quadrupole                           0.0000001628
     Magnetic Dipole                               0.0000006397
     Total Oscillator Strength                     0.0739268528

     Occ.    3  a   ---  Virt.    6  a       -0.25056
     Occ.    4  a   ---  Virt.    7  a        0.96589
  ----------------------------------------------------------------------------
  Root   5 singlet a              0.527151784 a.u.               14.3445 eV 
  ----------------------------------------------------------------------------
     Transition Moments    X -0.00000   Y  1.17200   Z -0.01835
     Transition Moments   XX  0.00328  XY -0.00000  XZ  0.00000
     Transition Moments   YY  0.04593  YZ -1.06619  ZZ  0.02543
     Dipole Oscillator Strength                    0.4828428814
     Electric Quadrupole                           0.0000008871
     Magnetic Dipole                               0.0000000216
     Total Oscillator Strength                     0.4828437900

     Occ.    3  a   ---  Virt.    6  a        0.96634
     Occ.    4  a   ---  Virt.    7  a        0.24800
  ----------------------------------------------------------------------------
  Root   6 singlet a              0.655835625 a.u.               17.8462 eV 
  ----------------------------------------------------------------------------
     Transition Moments    X  0.00000   Y -0.00261   Z  0.79504
     Transition Moments   XX -0.10330  XY -0.00000  XZ  0.00000
     Transition Moments   YY -2.06542  YZ  0.01367  ZZ -0.68591
     Dipole Oscillator Strength                    0.2763677614
     Electric Quadrupole                           0.0000015256
     Magnetic Dipole                               0.0000000002
     Total Oscillator Strength                     0.2763692872

     Occ.    2  a   ---  Virt.    6  a        0.10145
     Occ.    3  a   ---  Virt.    7  a        0.96069
     Occ.    4  a   ---  Virt.    6  a        0.13774
     Occ.    4  a   ---  Virt.    9  a        0.08398
     Occ.    4  a   ---  Virt.   11  a       -0.09278
     Occ.    5  a   ---  Virt.   10  a        0.16078
  ----------------------------------------------------------------------------
  Root   7 singlet a              0.968715117 a.u.               26.3601 eV 
  ----------------------------------------------------------------------------
     Transition Moments    X -0.02300   Y  0.00000   Z -0.00000
     Transition Moments   XX  0.00000  XY -0.48697  XZ -0.00686
     Transition Moments   YY -0.00000  YZ  0.00000  ZZ -0.00000
     Dipole Oscillator Strength                    0.0003417390
     Electric Quadrupole                           0.0000011482
     Magnetic Dipole                               0.0000006963
     Total Oscillator Strength                     0.0003435834

     Occ.    5  a   ---  Virt.    8  a       -0.99951
  ----------------------------------------------------------------------------
  Root   8 singlet a              1.010760206 a.u.               27.5042 eV 
  ----------------------------------------------------------------------------
     Transition Moments    X  0.00000   Y  0.00429   Z -0.22717
     Transition Moments   XX -0.23791  XY -0.00000  XZ  0.00000
     Transition Moments   YY  0.87923  YZ -0.02015  ZZ  0.51144
     Dipole Oscillator Strength                    0.0347860111
     Electric Quadrupole                           0.0000017846
     Magnetic Dipole                               0.0000000007
     Total Oscillator Strength                     0.0347877964

     Occ.    2  a   ---  Virt.    6  a        0.94088
     Occ.    4  a   ---  Virt.    9  a       -0.09447
     Occ.    5  a   ---  Virt.   10  a       -0.31531
  ----------------------------------------------------------------------------
  Root   9 singlet a              1.048135420 a.u.               28.5212 eV 
  ----------------------------------------------------------------------------
     Transition Moments    X -0.43693   Y  0.00000   Z -0.00000
     Transition Moments   XX -0.00000  XY  0.02987  XZ -0.33589
     Transition Moments   YY  0.00000  YZ -0.00000  ZZ  0.00000
     Dipole Oscillator Strength                    0.1333983596
     Electric Quadrupole                           0.0000006973
     Magnetic Dipole                               0.0000003643
     Total Oscillator Strength                     0.1333994212

     Occ.    5  a   ---  Virt.    9  a       -0.90082
     Occ.    5  a   ---  Virt.   11  a        0.42733
     Occ.    5  a   ---  Virt.   13  a       -0.06146
  ----------------------------------------------------------------------------
  Root  10 singlet a              1.073743140 a.u.               29.2180 eV 
  ----------------------------------------------------------------------------
     Transition Moments    X -0.00000   Y -0.45104   Z -0.01273
     Transition Moments   XX  0.02162  XY  0.00000  XZ  0.00000
     Transition Moments   YY  0.01232  YZ  0.34077  ZZ  0.01746
     Dipole Oscillator Strength                    0.1457422676
     Electric Quadrupole                           0.0000007657
     Magnetic Dipole                               0.0000016372
     Total Oscillator Strength                     0.1457446705

     Occ.    2  a   ---  Virt.    7  a        0.80601
     Occ.    3  a   ---  Virt.    9  a       -0.11678
     Occ.    4  a   ---  Virt.    8  a       -0.57671

              Target root =      3
          Target symmetry = none
      Ground state energy =    -76.408413235465
        Excitation energy =      0.384448371134
     Excited state energy =    -76.023964864331

  stored tddft:energy   -76.023964864330736     
 fn_civecs: ./h2o-namd.civecs_singlet                                                                                                                                                                                                                                       

  CI vectors are stored in ./h2o-namd.civecs_singlet       


                           NWChem TDDFT Gradient Module
                           ----------------------------


 ./h2o-namd.civecs_singlet                                                                                                                                                                                                                                      
 Calculated gradients of:
 Number of Singlet roots   1
 Singlet roots    3

 Start at time  cpu:      154.9s  wall:      187.4s

 nroot:                     1
TDDFT Energy Check(  1) =       0.38444837117665
  0 tda  T
  0 tda  T
  0 tda  T
  0 tda  T
  0 tda  T
  0 tda  T
  0 tda  T
  0 tda  T
  0 tda  T
  0 tda  T
  0 tda  T
  0 tda  T
  2 tda  T
  2 tda  T
  2 tda  T
  2 tda  T
  2 tda  T
  2 tda  T
  2 tda  T
  2 tda  T
  2 tda  T
  2 tda  T
  2 tda  T
  2 tda  T


Iterative solution of linear equations
  No. of variables       70
  No. of equations        1
  Maximum subspace       40
        Iterations      250
       Convergence  1.0D-04
        Start time    187.9


   iter   nsub   residual    time
   ----  ------  --------  ---------
     1      1    7.27D-01     188.0
     2      2    9.66D-02     188.1
     3      3    1.18D-02     188.2
     4      4    4.23D-04     188.3
     5      5    6.38D-05     188.4

     Multipole analysis of the density
     ---------------------------------

     L   x y z        total
     -   - - -        -----
     0   0 0 0     -0.000000

     1   1 0 0      0.000000
     1   0 1 0     -0.053369
     1   0 0 1      0.140669

     2   2 0 0     -6.145642
     2   1 1 0     -0.000000
     2   1 0 1      0.000000
     2   0 2 0     -6.227914
     2   0 1 1      0.095860
     2   0 0 2     -5.735221


     No. of electrons (tr(P*S)):     0.1000000E+02



                         Root   3

                         TDDFT ENERGY GRADIENTS

    atom               coordinates                        gradient
                 x          y          z           x          y          z
   1 O       0.000000  -0.001253   0.228426   -0.000000  -0.004192   0.025738
   2 H      -0.000000   1.472365  -0.930694    0.000000  -0.083619  -0.013958
   3 H      -0.000000  -1.452476  -0.914994    0.000000   0.087811  -0.011778

 TDDFT Gradient time  cpu:        1.3s  wall:        1.5s


            QMD Run Information
            -------------------
  Time elapsed (fs) :                     0.604721
  Kin. energy (a.u.):       50            0.005024
  Pot. energy (a.u.):       50          -76.023965
  Tot. energy (a.u.):       50          -76.018941
  Target temp. (K)  :       50              300.00
  Current temp. (K) :       50             1057.68
  Current state     :       50                   3
  Dipole (a.u.)     :       50   2.797796E-15  -5.336940E-02   1.406686E-01



 Task  times  cpu:      156.1s     wall:      188.3s


                                NWChem Input Module
                                -------------------


 Summary of allocated global arrays
-----------------------------------
  No active global arrays


MA_summarize_allocated_blocks: starting scan ...
heap block 'gridpts', handle 48, address 0x558a8d5adae8:
	type of elements:		double precision
	number of elements:		33554432
	address of client space:	0x558a8d5adb40
	index for client space:		10355679
	total number of bytes:		268435552
MA_summarize_allocated_blocks: scan completed: 1 heap block, 0 stack blocks
MA usage statistics:

	allocation statistics:
					      heap	     stack
					      ----	     -----
	current number of blocks	         1	         0
	maximum number of blocks	        21	       123
	current total bytes		 268435552	         0
	maximum total bytes		 268743096	  22513032
	maximum total K-bytes		    268744	     22514
	maximum total M-bytes		       269	        23


                                     CITATION
                                     --------
                Please cite the following reference when publishing
                           results obtained with NWChem:

          E. Apra, E. J. Bylaska, W. A. de Jong, N. Govind, K. Kowalski,
       T. P. Straatsma, M. Valiev, H. J. J. van Dam, Y. Alexeev, J. Anchell,
       V. Anisimov, F. W. Aquino, R. Atta-Fynn, J. Autschbach, N. P. Bauman,
     J. C. Becca, D. E. Bernholdt, K. Bhaskaran-Nair, S. Bogatko, P. Borowski,
         J. Boschen, J. Brabec, A. Bruner, E. Cauet, Y. Chen, G. N. Chuev,
      C. J. Cramer, J. Daily, M. J. O. Deegan, T. H. Dunning Jr., M. Dupuis,
   K. G. Dyall, G. I. Fann, S. A. Fischer, A. Fonari, H. Fruchtl, L. Gagliardi,
      J. Garza, N. Gawande, S. Ghosh, K. Glaesemann, A. W. Gotz, J. Hammond,
       V. Helms, E. D. Hermes, K. Hirao, S. Hirata, M. Jacquelin, L. Jensen,
   B. G. Johnson, H. Jonsson, R. A. Kendall, M. Klemm, R. Kobayashi, V. Konkov,
      S. Krishnamoorthy, M. Krishnan, Z. Lin, R. D. Lins, R. J. Littlefield,
      A. J. Logsdail, K. Lopata, W. Ma, A. V. Marenich, J. Martin del Campo,
   D. Mejia-Rodriguez, J. E. Moore, J. M. Mullin, T. Nakajima, D. R. Nascimento,
    J. A. Nichols, P. J. Nichols, J. Nieplocha, A. Otero-de-la-Roza, B. Palmer,
    A. Panyala, T. Pirojsirikul, B. Peng, R. Peverati, J. Pittner, L. Pollack,
   R. M. Richard, P. Sadayappan, G. C. Schatz, W. A. Shelton, D. W. Silverstein,
   D. M. A. Smith, T. A. Soares, D. Song, M. Swart, H. L. Taylor, G. S. Thomas,
            V. Tipparaju, D. G. Truhlar, K. Tsemekhman, T. Van Voorhis,
      A. Vazquez-Mayagoitia, P. Verma, O. Villa, A. Vishnu, K. D. Vogiatzis,
        D. Wang, J. H. Weare, M. J. Williamson, T. L. Windus, K. Wolinski,
        A. T. Wong, Q. Wu, C. Yang, Q. Yu, M. Zacharias, Z. Zhang, Y. Zhao,
                                and R. J. Harrison
                        "NWChem: Past, present, and future
                         J. Chem. Phys. 152, 184102 (2020)
                               doi:10.1063/5.0004997

                                      AUTHORS
                                      -------
  E. Apra, E. J. Bylaska, N. Govind, K. Kowalski, M. Valiev, D. Mejia-Rodriguez,
       A. Kunitsa, N. P. Bauman, A. Panyala, W. A. de Jong, T. P. Straatsma,
   H. J. J. van Dam, D. Wang, T. L. Windus, J. Hammond, J. Autschbach, A. Woods,
    K. Bhaskaran-Nair, J. Brabec, K. Lopata, S. A. Fischer, S. Krishnamoorthy,
     M. Jacquelin, W. Ma, M. Klemm, O. Villa, Y. Chen, V. Anisimov, F. Aquino,
     S. Hirata, M. T. Hackler, E. Hermes, L. Jensen, J. E. Moore, J. C. Becca,
      V. Konjkov, T. Risthaus, M. Malagoli, A. Marenich, A. Otero-de-la-Roza,
        J. Mullin, P. Nichols, R. Peverati, J. Pittner, Y. Zhao, P.-D. Fan,
        A. Fonari, M. J. Williamson, R. J. Harrison, J. R. Rehr, M. Dupuis,
     D. Silverstein, D. M. A. Smith, J. Nieplocha, V. Tipparaju, M. Krishnan,
     B. E. Van Kuiken, A. Vazquez-Mayagoitia, M. Swart, Q. Wu, T. Van Voorhis,
     A. A. Auer, M. Nooijen, L. D. Crosby, E. Brown, G. Cisneros, G. I. Fann,
   H. Fruchtl, J. Garza, K. Hirao, R. A. Kendall, J. A. Nichols, K. Tsemekhman,
    K. Wolinski, J. Anchell, D. E. Bernholdt, P. Borowski, T. Clark, D. Clerc,
   H. Dachsel, M. J. O. Deegan, K. Dyall, D. Elwood, E. Glendening, M. Gutowski,
   A. C. Hess, J. Jaffe, B. G. Johnson, J. Ju, R. Kobayashi, R. Kutteh, Z. Lin,
   R. Littlefield, X. Long, B. Meng, T. Nakajima, S. Niu, L. Pollack, M. Rosing,
   K. Glaesemann, G. Sandrone, M. Stave, H. Taylor, G. Thomas, J. H. van Lenthe,
                               A. T. Wong, Z. Zhang.

 Total times  cpu:      156.2s     wall:      191.4s
