 argument  1 = benzene_inp.nw



============================== echo of input deck ==============================
echo
title "total energy of benzene, B3LYP/3-21G"

start c6h6-b3lyp

geometry
 C    0.99261000     0.99261000     0.00000000
 C   -1.35593048     0.36332048     0.00000000
 C    0.36332048    -1.35593048     0.00000000
 C   -0.99261000    -0.99261000     0.00000000
 C    1.35593048    -0.36332048     0.00000000
 C   -0.36332048     1.35593048     0.00000000
 H    1.75792000     1.75792000     0.00000000
 H   -2.40136338     0.64344338     0.00000000
 H    0.64344338    -2.40136338     0.00000000
 H   -1.75792000    -1.75792000     0.00000000
 H    2.40136338    -0.64344338     0.00000000
 H   -0.64344338     2.40136338     0.00000000
end

basis
* library 3-21G
end

dft
  xc b3lyp
end

task dft energy
task dft optimize
task dft freq
================================================================================


                                         
                                         


             Northwest Computational Chemistry Package (NWChem) 7.2.0
             --------------------------------------------------------


                    Environmental Molecular Sciences Laboratory
                       Pacific Northwest National Laboratory
                                Richland, WA 99352

                              Copyright (c) 1994-2022
                       Pacific Northwest National Laboratory
                            Battelle Memorial Institute

             NWChem is an open-source computational chemistry package
                        distributed under the terms of the
                      Educational Community License (ECL) 2.0
             A copy of the license is included with this distribution
                              in the LICENSE.TXT file

                                  ACKNOWLEDGMENT
                                  --------------

            This software and its documentation were developed at the
            EMSL at Pacific Northwest National Laboratory, a multiprogram
            national laboratory, operated for the U.S. Department of Energy
            by Battelle under Contract Number DE-AC05-76RL01830. Support
            for this work was provided by the Department of Energy Office
            of Biological and Environmental Research, Office of Basic
            Energy Sciences, and the Office of Advanced Scientific Computing.


           Job information
           ---------------

    hostname        = cpn-m23-26.compute.cbls.ccr.buffalo.edu
    program         = nwchem
    date            = Tue Jun 20 11:12:27 2023

    compiled        = Sat_Jun_03_00:13:02_2023
    source          = /home/conda/feedstock_root/build_artifacts/nwchem_1685742347738/work
    nwchem branch   = 7.2.0
    nwchem revision = a703444
    ga revision     = 5.8.0
    use scalapack   = T
    input           = benzene_inp.nw
    prefix          = c6h6-b3lyp.
    data base       = ./c6h6-b3lyp.db
    status          = startup
    nproc           =       16
    time left       =     -1s



           Memory information
           ------------------

    heap     =   26214396 doubles =    200.0 Mbytes
    stack    =   26214401 doubles =    200.0 Mbytes
    global   =   52428800 doubles =    400.0 Mbytes (distinct from heap & stack)
    total    =  104857597 doubles =    800.0 Mbytes
    verify   = yes
    hardfail = no 


           Directory information
           ---------------------

  0 permanent = .
  0 scratch   = .




                                NWChem Input Module
                                -------------------


                       total energy of benzene, B3LYP/3-21G
                       ------------------------------------

 Scaling coordinates for geometry "geometry" by  1.889725989
 (inverse scale =  0.529177249)

 D6H symmetry detected

          ------
          auto-z
          ------
  no constraints, skipping    0.0000000000000000     
  no constraints, skipping    0.0000000000000000     


                             Geometry "geometry" -> ""
                             -------------------------

 Output coordinates in angstroms (scale by  1.889725989 to convert to a.u.)

  No.       Tag          Charge          X              Y              Z
 ---- ---------------- ---------- -------------- -------------- --------------
    1 C                    6.0000     0.99261000     0.99261000     0.00000000
    2 C                    6.0000    -1.35593048     0.36332048     0.00000000
    3 C                    6.0000     0.36332048    -1.35593048     0.00000000
    4 C                    6.0000    -0.99261000    -0.99261000     0.00000000
    5 C                    6.0000     1.35593048    -0.36332048     0.00000000
    6 C                    6.0000    -0.36332048     1.35593048     0.00000000
    7 H                    1.0000     1.75792000     1.75792000     0.00000000
    8 H                    1.0000    -2.40136338     0.64344338     0.00000000
    9 H                    1.0000     0.64344338    -2.40136338     0.00000000
   10 H                    1.0000    -1.75792000    -1.75792000     0.00000000
   11 H                    1.0000     2.40136338    -0.64344338     0.00000000
   12 H                    1.0000    -0.64344338     2.40136338     0.00000000

      Atomic Mass 
      ----------- 

      C                 12.000000
      H                  1.007825


 Effective nuclear repulsion energy (a.u.)     202.4405395545

            Nuclear Dipole moment (a.u.) 
            ----------------------------
        X                 Y               Z
 ---------------- ---------------- ----------------
     0.0000000000     0.0000000000     0.0000000000

      Symmetry information
      --------------------

 Group name             D6h       
 Group number             30
 Group order              24
 No. of unique centers     2

      Symmetry unique atoms

     1    7



                                Z-matrix (autoz)
                                -------- 

 Units are Angstrom for bonds and degrees for angles

      Type          Name      I     J     K     L     M      Value
      ----------- --------  ----- ----- ----- ----- ----- ----------
    1 Stretch                  1     5                       1.40376
    2 Stretch                  1     6                       1.40376
    3 Stretch                  1     7                       1.08231
    4 Stretch                  2     4                       1.40376
    5 Stretch                  2     6                       1.40376
    6 Stretch                  2     8                       1.08231
    7 Stretch                  3     4                       1.40376
    8 Stretch                  3     5                       1.40376
    9 Stretch                  3     9                       1.08231
   10 Stretch                  4    10                       1.08231
   11 Stretch                  5    11                       1.08231
   12 Stretch                  6    12                       1.08231
   13 Bend                     1     5     3               120.00000
   14 Bend                     1     5    11               120.00000
   15 Bend                     1     6     2               120.00000
   16 Bend                     1     6    12               120.00000
   17 Bend                     2     4     3               120.00000
   18 Bend                     2     4    10               120.00000
   19 Bend                     2     6    12               120.00000
   20 Bend                     3     4    10               120.00000
   21 Bend                     3     5    11               120.00000
   22 Bend                     4     2     6               120.00000
   23 Bend                     4     2     8               120.00000
   24 Bend                     4     3     5               120.00000
   25 Bend                     4     3     9               120.00000
   26 Bend                     5     1     6               120.00000
   27 Bend                     5     1     7               120.00000
   28 Bend                     5     3     9               120.00000
   29 Bend                     6     1     7               120.00000
   30 Bend                     6     2     8               120.00000
   31 Torsion                  1     5     3     4           0.00000
   32 Torsion                  1     5     3     9         180.00000
   33 Torsion                  1     6     2     4           0.00000
   34 Torsion                  1     6     2     8         180.00000
   35 Torsion                  2     4     3     5           0.00000
   36 Torsion                  2     4     3     9         180.00000
   37 Torsion                  2     6     1     5           0.00000
   38 Torsion                  2     6     1     7         180.00000
   39 Torsion                  3     4     2     6           0.00000
   40 Torsion                  3     4     2     8         180.00000
   41 Torsion                  3     5     1     6           0.00000
   42 Torsion                  3     5     1     7         180.00000
   43 Torsion                  4     2     6    12         180.00000
   44 Torsion                  4     3     5    11         180.00000
   45 Torsion                  5     1     6    12         180.00000
   46 Torsion                  5     3     4    10         180.00000
   47 Torsion                  6     1     5    11         180.00000
   48 Torsion                  6     2     4    10         180.00000
   49 Torsion                  7     1     5    11           0.00000
   50 Torsion                  7     1     6    12          -0.00000
   51 Torsion                  8     2     4    10          -0.00000
   52 Torsion                  8     2     6    12           0.00000
   53 Torsion                  9     3     4    10           0.00000
   54 Torsion                  9     3     5    11           0.00000


            XYZ format geometry
            -------------------
    12
 geometry
 C                     0.99261000     0.99261000     0.00000000
 C                    -1.35593048     0.36332048     0.00000000
 C                     0.36332048    -1.35593048     0.00000000
 C                    -0.99261000    -0.99261000     0.00000000
 C                     1.35593048    -0.36332048     0.00000000
 C                    -0.36332048     1.35593048     0.00000000
 H                     1.75792000     1.75792000     0.00000000
 H                    -2.40136338     0.64344338     0.00000000
 H                     0.64344338    -2.40136338     0.00000000
 H                    -1.75792000    -1.75792000     0.00000000
 H                     2.40136338    -0.64344338     0.00000000
 H                    -0.64344338     2.40136338     0.00000000

 ==============================================================================
                                internuclear distances
 ------------------------------------------------------------------------------
       center one      |      center two      | atomic units |  angstroms
 ------------------------------------------------------------------------------
    4 C                |   2 C                |     2.65273  |     1.40376
    4 C                |   3 C                |     2.65273  |     1.40376
    5 C                |   1 C                |     2.65273  |     1.40376
    5 C                |   3 C                |     2.65273  |     1.40376
    6 C                |   1 C                |     2.65273  |     1.40376
    6 C                |   2 C                |     2.65273  |     1.40376
    7 H                |   1 C                |     2.04527  |     1.08231
    8 H                |   2 C                |     2.04527  |     1.08231
    9 H                |   3 C                |     2.04527  |     1.08231
   10 H                |   4 C                |     2.04527  |     1.08231
   11 H                |   5 C                |     2.04527  |     1.08231
   12 H                |   6 C                |     2.04527  |     1.08231
 ------------------------------------------------------------------------------
                         number of included internuclear distances:         12
 ==============================================================================



 ==============================================================================
                                 internuclear angles
 ------------------------------------------------------------------------------
        center 1       |       center 2       |       center 3       |  degrees
 ------------------------------------------------------------------------------
    5 C                |   1 C                |   6 C                |   120.00
    5 C                |   1 C                |   7 H                |   120.00
    6 C                |   1 C                |   7 H                |   120.00
    4 C                |   2 C                |   6 C                |   120.00
    4 C                |   2 C                |   8 H                |   120.00
    6 C                |   2 C                |   8 H                |   120.00
    4 C                |   3 C                |   5 C                |   120.00
    4 C                |   3 C                |   9 H                |   120.00
    5 C                |   3 C                |   9 H                |   120.00
    2 C                |   4 C                |   3 C                |   120.00
    2 C                |   4 C                |  10 H                |   120.00
    3 C                |   4 C                |  10 H                |   120.00
    1 C                |   5 C                |   3 C                |   120.00
    1 C                |   5 C                |  11 H                |   120.00
    3 C                |   5 C                |  11 H                |   120.00
    1 C                |   6 C                |   2 C                |   120.00
    1 C                |   6 C                |  12 H                |   120.00
    2 C                |   6 C                |  12 H                |   120.00
 ------------------------------------------------------------------------------
                            number of included internuclear angles:         18
 ==============================================================================



  library name resolved from: environment
  library file name is: </projects/academic/cyberwksp21/Software/nwchem_conda0/share/nwchem/libraries/>
  


 Summary of "ao basis" -> "" (cartesian)
 ------------------------------------------------------------------------------
       Tag                 Description            Shells   Functions and Types
 ---------------- ------------------------------  ------  ---------------------
 *                           3-21G                    on all atoms 



                                 NWChem DFT Module
                                 -----------------


                       total energy of benzene, B3LYP/3-21G


                      Basis "ao basis" -> "ao basis" (cartesian)
                      -----
  C (Carbon)
  ----------
            Exponent  Coefficients 
       -------------- ---------------------------------------------------------
  1 S  1.72256000E+02  0.061767
  1 S  2.59109000E+01  0.358794
  1 S  5.53335000E+00  0.700713

  2 S  3.66498000E+00 -0.395897
  2 S  7.70545000E-01  1.215840

  3 P  3.66498000E+00  0.236460
  3 P  7.70545000E-01  0.860619

  4 S  1.95857000E-01  1.000000

  5 P  1.95857000E-01  1.000000

  H (Hydrogen)
  ------------
            Exponent  Coefficients 
       -------------- ---------------------------------------------------------
  1 S  5.44717800E+00  0.156285
  1 S  8.24547000E-01  0.904691

  2 S  1.83192000E-01  1.000000



 Summary of "ao basis" -> "ao basis" (cartesian)
 ------------------------------------------------------------------------------
       Tag                 Description            Shells   Functions and Types
 ---------------- ------------------------------  ------  ---------------------
 C                           3-21G                   5        9   3s2p
 H                           3-21G                   2        2   2s




 Summary of "ao basis" -> "ao basis" (cartesian)
 ------------------------------------------------------------------------------
       Tag                 Description            Shells   Functions and Types
 ---------------- ------------------------------  ------  ---------------------
 C                           3-21G                   5        9   3s2p
 H                           3-21G                   2        2   2s


      Symmetry analysis of basis
      --------------------------

        a1g         7
        a1u         0
        a2g         2
        a2u         2
        b1g         0
        b1u         7
        b2g         2
        b2u         2
        e1g         4
        e1u        18
        e2g        18
        e2u         4

  Caching 1-el integrals 

            General Information
            -------------------
          SCF calculation type: DFT
          Wavefunction type:  closed shell.
          No. of atoms     :    12
          No. of electrons :    42
           Alpha electrons :    21
            Beta electrons :    21
          Charge           :     0
          Spin multiplicity:     1
          Use of symmetry is: on ; symmetry adaption is: on 
          Maximum number of iterations:  50
          AO basis - number of functions:    66
                     number of shells:    42
          Convergence on energy requested:  1.00D-06
          Convergence on density requested:  1.00D-05
          Convergence on gradient requested:  5.00D-04

              XC Information
              --------------
                         B3LYP Method XC Potential
                     Hartree-Fock (Exact) Exchange  0.200          
                        Slater Exchange Functional  0.800 local    
                    Becke 1988 Exchange Functional  0.720 non-local
              Lee-Yang-Parr Correlation Functional  0.810          
                  VWN I RPA Correlation Functional  0.190 local    

             Grid Information
             ----------------
          Grid used for XC integration:  medium    
          Radial quadrature: Mura-Knowles        
          Angular quadrature: Lebedev. 
          Tag              B.-S. Rad. Rad. Pts. Rad. Cut. Ang. Pts.
          ---              ---------- --------- --------- ---------
          C                   0.70       49          10.0       434
          H                   0.35       45          11.0       434
          Grid pruning is: on 
          Number of quadrature shells:    94
          Spatial weights used:  Erf1

          Convergence Information
          -----------------------
          Convergence aids based upon iterative change in 
          total energy or number of iterations. 
          Levelshifting, if invoked, occurs when the 
          HOMO/LUMO gap drops below (HL_TOL):  1.00D-02
          DIIS, if invoked, will attempt to extrapolate 
          using up to (NFOCK): 10 stored Fock matrices.

                    Damping( 0%)  Levelshifting(0.5)       DIIS
                  --------------- ------------------- ---------------
          dE  on:    start            ASAP                start   
          dE off:    2 iters         50 iters            50 iters 


      Screening Tolerance Information
      -------------------------------
          Density screening/tol_rho:  1.00D-10
          AO Gaussian exp screening on grid/accAOfunc:  14
          CD Gaussian exp screening on grid/accCDfunc:  20
          XC Gaussian exp screening on grid/accXCfunc:  20
          Schwarz screening/accCoul:  1.00D-08


      Superposition of Atomic Density Guess
      -------------------------------------

 Sum of atomic energies:        -227.75976746

      Non-variational initial energy
      ------------------------------

 Total energy =    -231.937013
 1-e energy   =    -705.828643
 2-e energy   =     271.451090
 HOMO         =      -0.283977
 LUMO         =       0.017158


      Symmetry analysis of molecular orbitals - initial
      -------------------------------------------------

  Numbering of irreducible representations: 

     1 a1g         2 a1u         3 a2g         4 a2u         5 b1g     
     6 b1u         7 b2g         8 b2u         9 e1g        10 e1u     
    11 e2g        12 e2u     

  Orbital symmetries:

     1 a1g         2 e1u         3 e1u         4 b1u         5 e2g     
     6 e2g         7 a1g         8 e1u         9 e1u        10 e2g     
    11 e2g        12 a1g        13 b1u        14 b2u        15 e1u     
    16 e1u        17 a2u        18 e2g        19 e2g        20 e1g     
    21 e1g        22 e2u        23 e2u        24 a1g        25 b2g     
    26 e1u        27 e1u        28 e2g        29 e2g        30 b1u     
    31 e2g     

  WARNING: movecs_in_org=atomic not equal to movecs_in=./c6h6-b3lyp.movecs
   Time after variat. SCF:      1.4
   Time prior to 1st pass:      1.4

 Grid_pts file          = ./c6h6-b3lyp.gridpts.00
 Record size in doubles =  12289        No. of grid_pts per rec  =   3070
 Max. records in memory =      2        Max. recs in file   =  63328179


           Memory utilization after 1st SCF pass: 
           Heap Space remaining (MW):        0.00                  36
          Stack Space remaining (MW):       26.21            26213724

   convergence    iter        energy       DeltaE   RMS-Dens  Diis-err    time
 ---------------- ----- ----------------- --------- --------- ---------  ------
 d= 0,ls=0.0,diis     1   -230.9167425975 -4.33D+02  8.30D-03  5.38D-01     1.5
 d= 0,ls=0.0,diis     2   -230.9729661829 -5.62D-02  2.54D-03  2.02D-02     1.6
 d= 0,ls=0.0,diis     3   -230.9743515530 -1.39D-03  1.42D-03  8.48D-03     1.7
 d= 0,ls=0.0,diis     4   -230.9755008239 -1.15D-03  2.73D-04  1.42D-04     1.8
 d= 0,ls=0.0,diis     5   -230.9755225742 -2.18D-05  1.05D-05  1.43D-07     1.9
 d= 0,ls=0.0,diis     6   -230.9755226003 -2.61D-08  6.57D-07  4.39D-10     2.0


         Total DFT energy =     -230.975522600334
      One electron energy =     -710.329233551850
           Coulomb energy =      311.561920266994
    Exchange-Corr. energy =      -34.648748870000
 Nuclear repulsion energy =      202.440539554522

 Numeric. integr. density =       41.999994036814

     Total iterative time =      0.6s



                  Occupations of the irreducible representations
                  ----------------------------------------------

                     irrep           alpha         beta
                     --------     --------     --------
                     a1g               3.0          3.0
                     a1u               0.0          0.0
                     a2g               0.0          0.0
                     a2u               1.0          1.0
                     b1g               0.0          0.0
                     b1u               2.0          2.0
                     b2g               0.0          0.0
                     b2u               1.0          1.0
                     e1g               2.0          2.0
                     e1u               6.0          6.0
                     e2g               6.0          6.0
                     e2u               0.0          0.0


                       DFT Final Molecular Orbital Analysis
                       ------------------------------------

 Vector    1  Occ=2.000000D+00  E=-1.012968D+01  Symmetry=b1u
              MO Center=  7.1D-18, -4.4D-17, -5.9D-38, r^2= 2.0D+00
   Bfn.  Coefficient  Atom+Function         Bfn.  Coefficient  Atom+Function  
  ----- ------------  ---------------      ----- ------------  ---------------
     1      0.403057   1 C  s                10      0.403057   2 C  s         
    19      0.403057   3 C  s                28     -0.403057   4 C  s         
    37     -0.403057   5 C  s                46     -0.403057   6 C  s         
     6     -0.091598   1 C  s                15     -0.091598   2 C  s         
    24     -0.091598   3 C  s                33      0.091598   4 C  s         

 Vector    2  Occ=2.000000D+00  E=-1.012903D+01  Symmetry=e2g
              MO Center=  2.6D-12,  4.0D-12, -6.0D-18, r^2= 2.0D+00
   Bfn.  Coefficient  Atom+Function         Bfn.  Coefficient  Atom+Function  
  ----- ------------  ---------------      ----- ------------  ---------------
    19      0.531061   3 C  s                46      0.531061   6 C  s         
    10     -0.443176   2 C  s                37     -0.443176   5 C  s         
     1     -0.087885   1 C  s                28     -0.087885   4 C  s         
    20      0.060962   3 C  s                24     -0.061204   3 C  s         
    47      0.060962   6 C  s                51     -0.061204   6 C  s         

 Vector    3  Occ=2.000000D+00  E=-1.012903D+01  Symmetry=e2g
              MO Center=  2.9D-16,  8.6D-17, -9.5D-35, r^2= 2.0D+00
   Bfn.  Coefficient  Atom+Function         Bfn.  Coefficient  Atom+Function  
  ----- ------------  ---------------      ----- ------------  ---------------
     1      0.562476   1 C  s                28      0.562476   4 C  s         
    10     -0.357348   2 C  s                37     -0.357348   5 C  s         
    19     -0.205128   3 C  s                46     -0.205128   6 C  s         
     2      0.064568   1 C  s                 6     -0.064825   1 C  s         
    29      0.064568   4 C  s                33     -0.064825   4 C  s         

 Vector    4  Occ=2.000000D+00  E=-1.012789D+01  Symmetry=e1u
              MO Center= -3.7D-12, -1.8D-12,  8.5D-30, r^2= 2.0D+00
   Bfn.  Coefficient  Atom+Function         Bfn.  Coefficient  Atom+Function  
  ----- ------------  ---------------      ----- ------------  ---------------
    10      0.568640   2 C  s                37     -0.568640   5 C  s         
    19     -0.304738   3 C  s                46      0.304738   6 C  s         
     1     -0.263902   1 C  s                28      0.263902   4 C  s         
    11      0.061002   2 C  s                38     -0.061002   5 C  s         
    15     -0.035449   2 C  s                42      0.035449   5 C  s         

 Vector    5  Occ=2.000000D+00  E=-1.012789D+01  Symmetry=e1u
              MO Center=  3.7D-13, -4.5D-12,  1.9D-21, r^2= 2.0D+00
   Bfn.  Coefficient  Atom+Function         Bfn.  Coefficient  Atom+Function  
  ----- ------------  ---------------      ----- ------------  ---------------
     1      0.504245   1 C  s                28     -0.504245   4 C  s         
    19     -0.480668   3 C  s                46      0.480668   6 C  s         
     2      0.054094   1 C  s                29     -0.054094   4 C  s         
    20     -0.051564   3 C  s                47      0.051564   6 C  s         
     6     -0.031435   1 C  s                33      0.031435   4 C  s         

 Vector    6  Occ=2.000000D+00  E=-1.012684D+01  Symmetry=a1g
              MO Center=  7.2D-13,  2.3D-12,  3.5D-22, r^2= 2.0D+00
   Bfn.  Coefficient  Atom+Function         Bfn.  Coefficient  Atom+Function  
  ----- ------------  ---------------      ----- ------------  ---------------
     1      0.402317   1 C  s                10      0.402317   2 C  s         
    19      0.402317   3 C  s                28      0.402317   4 C  s         
    37      0.402317   5 C  s                46      0.402317   6 C  s         
     2      0.040478   1 C  s                11      0.040478   2 C  s         
    20      0.040478   3 C  s                29      0.040478   4 C  s         

 Vector    7  Occ=2.000000D+00  E=-8.521221D-01  Symmetry=a1g
              MO Center= -5.6D-15, -8.3D-15,  1.5D-16, r^2= 2.1D+00
   Bfn.  Coefficient  Atom+Function         Bfn.  Coefficient  Atom+Function  
  ----- ------------  ---------------      ----- ------------  ---------------
     6      0.183418   1 C  s                15      0.183418   2 C  s         
    24      0.183418   3 C  s                33      0.183418   4 C  s         
    42      0.183418   5 C  s                51      0.183418   6 C  s         
     2      0.107355   1 C  s                11      0.107355   2 C  s         
    20      0.107355   3 C  s                29      0.107355   4 C  s         

 Vector    8  Occ=2.000000D+00  E=-7.447206D-01  Symmetry=e1u
              MO Center= -1.0D-15,  8.3D-16,  4.5D-33, r^2= 2.9D+00
   Bfn.  Coefficient  Atom+Function         Bfn.  Coefficient  Atom+Function  
  ----- ------------  ---------------      ----- ------------  ---------------
    15      0.285845   2 C  s                42     -0.285845   5 C  s         
    24     -0.273896   3 C  s                51      0.273896   6 C  s         
    11      0.130102   2 C  s                38     -0.130102   5 C  s         
    20     -0.124664   3 C  s                47      0.124664   6 C  s         
    10     -0.122006   2 C  s                37      0.122006   5 C  s         

 Vector    9  Occ=2.000000D+00  E=-7.447206D-01  Symmetry=e1u
              MO Center= -3.7D-15,  9.4D-15, -1.1D-17, r^2= 2.9D+00
   Bfn.  Coefficient  Atom+Function         Bfn.  Coefficient  Atom+Function  
  ----- ------------  ---------------      ----- ------------  ---------------
     6      0.323166   1 C  s                33     -0.323166   4 C  s         
    24     -0.171931   3 C  s                51      0.171931   6 C  s         
    15     -0.151236   2 C  s                42      0.151236   5 C  s         
     2      0.147089   1 C  s                29     -0.147089   4 C  s         
     1     -0.137936   1 C  s                28      0.137936   4 C  s         

 Vector   10  Occ=2.000000D+00  E=-6.043779D-01  Symmetry=e2g
              MO Center=  1.1D-14, -8.0D-16, -9.5D-33, r^2= 3.7D+00
   Bfn.  Coefficient  Atom+Function         Bfn.  Coefficient  Atom+Function  
  ----- ------------  ---------------      ----- ------------  ---------------
    24      0.328479   3 C  s                51      0.328479   6 C  s         
     6     -0.234928   1 C  s                33     -0.234928   4 C  s         
    13      0.166063   2 C  py               40     -0.166063   5 C  py        
     3     -0.121399   1 C  px               30      0.121399   4 C  px        
    20      0.110111   3 C  s                47      0.110111   6 C  s         

 Vector   11  Occ=2.000000D+00  E=-6.043779D-01  Symmetry=e2g
              MO Center= -7.1D-17, -5.4D-16,  3.4D-34, r^2= 3.7D+00
   Bfn.  Coefficient  Atom+Function         Bfn.  Coefficient  Atom+Function  
  ----- ------------  ---------------      ----- ------------  ---------------
    15      0.325283   2 C  s                42      0.325283   5 C  s         
     6     -0.243659   1 C  s                33     -0.243659   4 C  s         
    21      0.168256   3 C  px               48     -0.168256   6 C  px        
     4     -0.119099   1 C  py               31      0.119099   4 C  py        
    11      0.109040   2 C  s                38      0.109040   5 C  s         

 Vector   12  Occ=2.000000D+00  E=-5.272458D-01  Symmetry=a1g
              MO Center= -2.6D-15, -2.1D-14,  4.4D-16, r^2= 4.2D+00
   Bfn.  Coefficient  Atom+Function         Bfn.  Coefficient  Atom+Function  
  ----- ------------  ---------------      ----- ------------  ---------------
    12      0.167419   2 C  px               22      0.167419   3 C  py        
    39     -0.167419   5 C  px               49     -0.167419   6 C  py        
     3     -0.122559   1 C  px                4     -0.122559   1 C  py        
    30      0.122559   4 C  px               31      0.122559   4 C  py        
    16      0.103297   2 C  px               26      0.103297   3 C  py        

 Vector   13  Occ=2.000000D+00  E=-4.627399D-01  Symmetry=b1u
              MO Center= -6.1D-17,  1.3D-16,  2.8D-31, r^2= 5.3D+00
   Bfn.  Coefficient  Atom+Function         Bfn.  Coefficient  Atom+Function  
  ----- ------------  ---------------      ----- ------------  ---------------
     6      0.267479   1 C  s                15      0.267479   2 C  s         
    24      0.267479   3 C  s                33     -0.267479   4 C  s         
    42     -0.267479   5 C  s                51     -0.267479   6 C  s         
    55      0.132591   7 H  s                57      0.132591   8 H  s         
    59      0.132591   9 H  s                61     -0.132591  10 H  s         

 Vector   14  Occ=2.000000D+00  E=-4.507899D-01  Symmetry=b2u
              MO Center= -5.7D-17,  8.1D-17,  2.7D-44, r^2= 2.7D+00
   Bfn.  Coefficient  Atom+Function         Bfn.  Coefficient  Atom+Function  
  ----- ------------  ---------------      ----- ------------  ---------------
    13      0.239172   2 C  py               21     -0.239172   3 C  px        
    40      0.239172   5 C  py               48     -0.239172   6 C  px        
     3      0.175086   1 C  px                4     -0.175086   1 C  py        
    30      0.175086   4 C  px               31     -0.175086   4 C  py        
    17      0.133862   2 C  py               25     -0.133862   3 C  px        

 Vector   15  Occ=2.000000D+00  E=-4.258446D-01  Symmetry=e1u
              MO Center=  1.5D-14,  8.8D-15,  4.5D-17, r^2= 4.0D+00
   Bfn.  Coefficient  Atom+Function         Bfn.  Coefficient  Atom+Function  
  ----- ------------  ---------------      ----- ------------  ---------------
     4      0.196355   1 C  py               31      0.196355   4 C  py        
    12      0.181780   2 C  px               39      0.181780   5 C  px        
     3      0.162756   1 C  px               30      0.162756   4 C  px        
    55      0.146589   7 H  s                61     -0.146589  10 H  s         
    56      0.133438   7 H  s                62     -0.133438  10 H  s         

 Vector   16  Occ=2.000000D+00  E=-4.258446D-01  Symmetry=e1u
              MO Center= -8.6D-15,  1.2D-14, -2.9D-18, r^2= 4.0D+00
   Bfn.  Coefficient  Atom+Function         Bfn.  Coefficient  Atom+Function  
  ----- ------------  ---------------      ----- ------------  ---------------
    22      0.257649   3 C  py               49      0.257649   6 C  py        
    12     -0.185372   2 C  px               39     -0.185372   5 C  px        
    26      0.169908   3 C  py               53      0.169908   6 C  py        
    59     -0.151730   9 H  s                65      0.151730  12 H  s         
    60     -0.138118   9 H  s                66      0.138118  12 H  s         

 Vector   17  Occ=2.000000D+00  E=-3.639419D-01  Symmetry=a2u
              MO Center=  1.6D-15,  4.9D-16, -6.1D-16, r^2= 2.8D+00
   Bfn.  Coefficient  Atom+Function         Bfn.  Coefficient  Atom+Function  
  ----- ------------  ---------------      ----- ------------  ---------------
     5      0.192218   1 C  pz               14      0.192218   2 C  pz        
    23      0.192218   3 C  pz               32      0.192218   4 C  pz        
    41      0.192218   5 C  pz               50      0.192218   6 C  pz        
     9      0.168743   1 C  pz               18      0.168743   2 C  pz        
    27      0.168743   3 C  pz               36      0.168743   4 C  pz        

 Vector   18  Occ=2.000000D+00  E=-3.466066D-01  Symmetry=e2g
              MO Center= -5.8D-15,  3.9D-15,  7.3D-18, r^2= 4.2D+00
   Bfn.  Coefficient  Atom+Function         Bfn.  Coefficient  Atom+Function  
  ----- ------------  ---------------      ----- ------------  ---------------
    13      0.225003   2 C  py               40     -0.225003   5 C  py        
     4      0.215236   1 C  py               31     -0.215236   4 C  py        
    22      0.191114   3 C  py               49     -0.191114   6 C  py        
    26      0.161386   3 C  py               53     -0.161386   6 C  py        
    59     -0.159485   9 H  s                60     -0.159799   9 H  s         

 Vector   19  Occ=2.000000D+00  E=-3.466066D-01  Symmetry=e2g
              MO Center=  1.9D-15, -3.4D-15,  4.6D-31, r^2= 4.2D+00
   Bfn.  Coefficient  Atom+Function         Bfn.  Coefficient  Atom+Function  
  ----- ------------  ---------------      ----- ------------  ---------------
    21      0.229788   3 C  px               48     -0.229788   6 C  px        
     3      0.205666   1 C  px               30     -0.205666   4 C  px        
    12      0.195899   2 C  px               39     -0.195899   5 C  px        
    16      0.159192   2 C  px               43     -0.159192   5 C  px        
     7      0.154714   1 C  px               34     -0.154714   4 C  px        

 Vector   20  Occ=2.000000D+00  E=-2.501368D-01  Symmetry=e1g
              MO Center= -5.5D-16, -1.0D-15,  1.3D-17, r^2= 3.0D+00
   Bfn.  Coefficient  Atom+Function         Bfn.  Coefficient  Atom+Function  
  ----- ------------  ---------------      ----- ------------  ---------------
     9      0.290885   1 C  pz               36     -0.290885   4 C  pz        
     5      0.277750   1 C  pz               32     -0.277750   4 C  pz        
    27     -0.227065   3 C  pz               54      0.227065   6 C  pz        
    23     -0.216812   3 C  pz               50      0.216812   6 C  pz        
    18     -0.063820   2 C  pz               45      0.063820   5 C  pz        

 Vector   21  Occ=2.000000D+00  E=-2.501368D-01  Symmetry=e1g
              MO Center= -7.2D-16,  1.4D-15,  1.0D-16, r^2= 3.0D+00
   Bfn.  Coefficient  Atom+Function         Bfn.  Coefficient  Atom+Function  
  ----- ------------  ---------------      ----- ------------  ---------------
    18      0.299039   2 C  pz               45     -0.299039   5 C  pz        
    14      0.285535   2 C  pz               41     -0.285535   5 C  pz        
    27     -0.204789   3 C  pz               54      0.204789   6 C  pz        
    23     -0.195541   3 C  pz               50      0.195541   6 C  pz        
     9     -0.094250   1 C  pz               36      0.094250   4 C  pz        

 Vector   22  Occ=0.000000D+00  E= 3.850281D-03  Symmetry=e2u
              MO Center= -4.4D-16, -8.2D-16, -1.3D-18, r^2= 3.3D+00
   Bfn.  Coefficient  Atom+Function         Bfn.  Coefficient  Atom+Function  
  ----- ------------  ---------------      ----- ------------  ---------------
    27      0.530573   3 C  pz               54      0.530573   6 C  pz        
     9     -0.327349   1 C  pz               36     -0.327349   4 C  pz        
    23      0.311396   3 C  pz               50      0.311396   6 C  pz        
    18     -0.203224   2 C  pz               45     -0.203224   5 C  pz        
     5     -0.192123   1 C  pz               32     -0.192123   4 C  pz        

 Vector   23  Occ=0.000000D+00  E= 3.850281D-03  Symmetry=e2u
              MO Center=  8.5D-15,  1.2D-15, -4.1D-15, r^2= 3.3D+00
   Bfn.  Coefficient  Atom+Function         Bfn.  Coefficient  Atom+Function  
  ----- ------------  ---------------      ----- ------------  ---------------
    18      0.495322   2 C  pz               45      0.495322   5 C  pz        
     9     -0.423658   1 C  pz               36     -0.423658   4 C  pz        
    14      0.290707   2 C  pz               41      0.290707   5 C  pz        
     5     -0.248647   1 C  pz               32     -0.248647   4 C  pz        
    27     -0.071664   3 C  pz               54     -0.071664   6 C  pz        

 Vector   24  Occ=0.000000D+00  E= 1.075827D-01  Symmetry=a1g
              MO Center=  4.8D-16, -5.6D-16,  1.6D-17, r^2= 7.9D+00
   Bfn.  Coefficient  Atom+Function         Bfn.  Coefficient  Atom+Function  
  ----- ------------  ---------------      ----- ------------  ---------------
    56      0.704059   7 H  s                58      0.704059   8 H  s         
    60      0.704059   9 H  s                62      0.704059  10 H  s         
    64      0.704059  11 H  s                66      0.704059  12 H  s         
     6     -0.512066   1 C  s                15     -0.512066   2 C  s         
    24     -0.512066   3 C  s                33     -0.512066   4 C  s         

 Vector   25  Occ=0.000000D+00  E= 1.621726D-01  Symmetry=b2g
              MO Center= -8.7D-15, -1.0D-15, -2.0D-17, r^2= 3.5D+00
   Bfn.  Coefficient  Atom+Function         Bfn.  Coefficient  Atom+Function  
  ----- ------------  ---------------      ----- ------------  ---------------
     9      0.533344   1 C  pz               18      0.533344   2 C  pz        
    27      0.533344   3 C  pz               36     -0.533344   4 C  pz        
    45     -0.533344   5 C  pz               54     -0.533344   6 C  pz        
     5      0.251890   1 C  pz               14      0.251890   2 C  pz        
    23      0.251890   3 C  pz               32     -0.251890   4 C  pz        

 Vector   26  Occ=0.000000D+00  E= 1.650623D-01  Symmetry=e1u
              MO Center= -1.0D-13,  6.9D-15, -4.1D-19, r^2= 8.2D+00
   Bfn.  Coefficient  Atom+Function         Bfn.  Coefficient  Atom+Function  
  ----- ------------  ---------------      ----- ------------  ---------------
    56      1.082682   7 H  s                62     -1.082682  10 H  s         
    60     -0.802109   9 H  s                66      0.802109  12 H  s         
     6     -0.713328   1 C  s                33      0.713328   4 C  s         
    24      0.528472   3 C  s                51     -0.528472   6 C  s         
     7     -0.421419   1 C  px               34     -0.421419   4 C  px        

 Vector   27  Occ=0.000000D+00  E= 1.650623D-01  Symmetry=e1u
              MO Center= -3.2D-16, -1.5D-16, -1.1D-18, r^2= 8.2D+00
   Bfn.  Coefficient  Atom+Function         Bfn.  Coefficient  Atom+Function  
  ----- ------------  ---------------      ----- ------------  ---------------
    58      1.088185   8 H  s                64     -1.088185  11 H  s         
    60     -0.787075   9 H  s                66      0.787075  12 H  s         
    15     -0.716953   2 C  s                42      0.716953   5 C  s         
    16      0.572614   2 C  px               43      0.572614   5 C  px        
    24      0.518567   3 C  s                51     -0.518567   6 C  s         

 Vector   28  Occ=0.000000D+00  E= 2.053485D-01  Symmetry=e2g
              MO Center=  1.1D-13,  1.3D-14,  4.3D-16, r^2= 7.9D+00
   Bfn.  Coefficient  Atom+Function         Bfn.  Coefficient  Atom+Function  
  ----- ------------  ---------------      ----- ------------  ---------------
     6      1.407222   1 C  s                33      1.407222   4 C  s         
    24     -1.211376   3 C  s                51     -1.211376   6 C  s         
    56     -1.001059   7 H  s                62     -1.001059  10 H  s         
    60      0.861740   9 H  s                66      0.861740  12 H  s         
    17      0.383168   2 C  py               44     -0.383168   5 C  py        

 Vector   29  Occ=0.000000D+00  E= 2.053485D-01  Symmetry=e2g
              MO Center=  2.3D-13, -1.0D-13,  1.7D-15, r^2= 7.9D+00
   Bfn.  Coefficient  Atom+Function         Bfn.  Coefficient  Atom+Function  
  ----- ------------  ---------------      ----- ------------  ---------------
    15      1.511848   2 C  s                42      1.511848   5 C  s         
    58     -1.075487   8 H  s                64     -1.075487  11 H  s         
    24     -0.925532   3 C  s                51     -0.925532   6 C  s         
    60      0.658398   9 H  s                66      0.658398  12 H  s         
     6     -0.586317   1 C  s                33     -0.586317   4 C  s         

 Vector   30  Occ=0.000000D+00  E= 2.116517D-01  Symmetry=b1u
              MO Center= -2.0D-13,  8.3D-14, -9.0D-19, r^2= 8.9D+00
   Bfn.  Coefficient  Atom+Function         Bfn.  Coefficient  Atom+Function  
  ----- ------------  ---------------      ----- ------------  ---------------
    56      0.972743   7 H  s                58      0.972743   8 H  s         
    60      0.972743   9 H  s                62     -0.972743  10 H  s         
    64     -0.972743  11 H  s                66     -0.972743  12 H  s         
    16      0.721779   2 C  px               26      0.721779   3 C  py        
    43      0.721779   5 C  px               53      0.721779   6 C  py        

 Vector   31  Occ=0.000000D+00  E= 3.217244D-01  Symmetry=e2g
              MO Center=  3.8D-13, -4.4D-13,  2.2D-15, r^2= 4.8D+00
   Bfn.  Coefficient  Atom+Function         Bfn.  Coefficient  Atom+Function  
  ----- ------------  ---------------      ----- ------------  ---------------
    15      1.564342   2 C  s                42      1.564342   5 C  s         
    16      1.346105   2 C  px               43     -1.346105   5 C  px        
     8      0.959794   1 C  py               35     -0.959794   4 C  py        
    58      0.854206   8 H  s                64      0.854206  11 H  s         
     6     -0.826823   1 C  s                33     -0.826823   4 C  s         

 Vector   32  Occ=0.000000D+00  E= 3.217244D-01  Symmetry=e2g
              MO Center= -4.4D-14,  4.2D-13,  1.5D-17, r^2= 4.8D+00
   Bfn.  Coefficient  Atom+Function         Bfn.  Coefficient  Atom+Function  
  ----- ------------  ---------------      ----- ------------  ---------------
    24     -1.380540   3 C  s                51     -1.380540   6 C  s         
     6      1.328979   1 C  s                33      1.328979   4 C  s         
     7     -1.112617   1 C  px               34      1.112617   4 C  px        
    26     -1.104739   3 C  py               53      1.104739   6 C  py        
    60     -0.753841   9 H  s                66     -0.753841  12 H  s         

 Vector   33  Occ=0.000000D+00  E= 3.331767D-01  Symmetry=e1u
              MO Center= -5.7D-13,  2.2D-13, -4.5D-17, r^2= 4.6D+00
   Bfn.  Coefficient  Atom+Function         Bfn.  Coefficient  Atom+Function  
  ----- ------------  ---------------      ----- ------------  ---------------
    25      1.662602   3 C  px               52      1.662602   6 C  px        
    15      1.429409   2 C  s                42     -1.429409   5 C  s         
     6     -1.401328   1 C  s                33      1.401328   4 C  s         
    17      0.762417   2 C  py               44      0.762417   5 C  py        
     7      0.743460   1 C  px               34      0.743460   4 C  px        

 Vector   34  Occ=0.000000D+00  E= 3.331767D-01  Symmetry=e1u
              MO Center=  2.5D-13, -1.8D-13,  3.0D-17, r^2= 4.6D+00
   Bfn.  Coefficient  Atom+Function         Bfn.  Coefficient  Atom+Function  
  ----- ------------  ---------------      ----- ------------  ---------------
    24      1.634327   3 C  s                51     -1.634327   6 C  s         
    17      1.477642   2 C  py               44      1.477642   5 C  py        
     8      1.113380   1 C  py               35      1.113380   4 C  py        
     7     -0.972724   1 C  px               34     -0.972724   4 C  px        
     6     -0.841483   1 C  s                33      0.841483   4 C  s         

 Vector   35  Occ=0.000000D+00  E= 5.685769D-01  Symmetry=b1u
              MO Center= -3.5D-14, -1.8D-14,  1.8D-17, r^2= 3.8D+00
   Bfn.  Coefficient  Atom+Function         Bfn.  Coefficient  Atom+Function  
  ----- ------------  ---------------      ----- ------------  ---------------
     6      2.367630   1 C  s                15      2.367630   2 C  s         
    24      2.367630   3 C  s                33     -2.367630   4 C  s         
    42     -2.367630   5 C  s                51     -2.367630   6 C  s         
    16      1.856106   2 C  px               26      1.856106   3 C  py        
    43      1.856106   5 C  px               53      1.856106   6 C  py        

 Vector   36  Occ=0.000000D+00  E= 5.708277D-01  Symmetry=a2g
              MO Center= -5.7D-15, -1.3D-16, -9.7D-30, r^2= 4.5D+00
   Bfn.  Coefficient  Atom+Function         Bfn.  Coefficient  Atom+Function  
  ----- ------------  ---------------      ----- ------------  ---------------
    17      2.322170   2 C  py               25     -2.322170   3 C  px        
    44     -2.322170   5 C  py               52      2.322170   6 C  px        
     7      1.699946   1 C  px                8     -1.699946   1 C  py        
    34     -1.699946   4 C  px               35      1.699946   4 C  py        
    16      0.622223   2 C  px               26     -0.622223   3 C  py        

 Vector   37  Occ=0.000000D+00  E= 6.716361D-01  Symmetry=b2u
              MO Center=  1.0D-15, -3.2D-15, -2.1D-31, r^2= 4.8D+00
   Bfn.  Coefficient  Atom+Function         Bfn.  Coefficient  Atom+Function  
  ----- ------------  ---------------      ----- ------------  ---------------
    17      0.460487   2 C  py               25     -0.460487   3 C  px        
    44      0.460487   5 C  py               52     -0.460487   6 C  px        
    13     -0.380737   2 C  py               21      0.380737   3 C  px        
    40     -0.380737   5 C  py               48      0.380737   6 C  px        
     7      0.337100   1 C  px                8     -0.337100   1 C  py        

 Vector   38  Occ=0.000000D+00  E= 6.861228D-01  Symmetry=a1g
              MO Center= -1.6D-15, -2.6D-15,  4.1D-18, r^2= 4.2D+00
   Bfn.  Coefficient  Atom+Function         Bfn.  Coefficient  Atom+Function  
  ----- ------------  ---------------      ----- ------------  ---------------
    55      0.327214   7 H  s                57      0.327214   8 H  s         
    59      0.327214   9 H  s                61      0.327214  10 H  s         
    63      0.327214  11 H  s                65      0.327214  12 H  s         
    16      0.294993   2 C  px               26      0.294993   3 C  py        
    43     -0.294993   5 C  px               53     -0.294993   6 C  py        

 Vector   39  Occ=0.000000D+00  E= 6.966998D-01  Symmetry=a2u
              MO Center=  3.0D-15, -1.6D-15,  3.1D-17, r^2= 3.2D+00
   Bfn.  Coefficient  Atom+Function         Bfn.  Coefficient  Atom+Function  
  ----- ------------  ---------------      ----- ------------  ---------------
     5      0.434929   1 C  pz               14      0.434929   2 C  pz        
    23      0.434929   3 C  pz               32      0.434929   4 C  pz        
    41      0.434929   5 C  pz               50      0.434929   6 C  pz        
     9     -0.281155   1 C  pz               18     -0.281155   2 C  pz        
    27     -0.281155   3 C  pz               36     -0.281155   4 C  pz        

 Vector   40  Occ=0.000000D+00  E= 7.366803D-01  Symmetry=e2g
              MO Center=  2.2D-15,  1.1D-15, -4.1D-16, r^2= 4.2D+00
   Bfn.  Coefficient  Atom+Function         Bfn.  Coefficient  Atom+Function  
  ----- ------------  ---------------      ----- ------------  ---------------
    25     -0.565963   3 C  px               52      0.565963   6 C  px        
    21      0.522311   3 C  px               48     -0.522311   6 C  px        
     8      0.356782   1 C  py               35     -0.356782   4 C  py        
     4     -0.329266   1 C  py               15      0.329714   2 C  s         
    31      0.329266   4 C  py               42      0.329714   5 C  s         

 Vector   41  Occ=0.000000D+00  E= 7.366803D-01  Symmetry=e2g
              MO Center=  1.3D-14, -1.3D-14, -5.5D-16, r^2= 4.2D+00
   Bfn.  Coefficient  Atom+Function         Bfn.  Coefficient  Atom+Function  
  ----- ------------  ---------------      ----- ------------  ---------------
    17     -0.495353   2 C  py               44      0.495353   5 C  py        
    13      0.457147   2 C  py               40     -0.457147   5 C  py        
     7      0.425961   1 C  px               34     -0.425961   4 C  px        
     3     -0.393109   1 C  px               30      0.393109   4 C  px        
    24      0.363212   3 C  s                51      0.363212   6 C  s         

 Vector   42  Occ=0.000000D+00  E= 7.873550D-01  Symmetry=e1g
              MO Center=  4.1D-15,  6.6D-16,  7.2D-16, r^2= 3.6D+00
   Bfn.  Coefficient  Atom+Function         Bfn.  Coefficient  Atom+Function  
  ----- ------------  ---------------      ----- ------------  ---------------
    23      0.624435   3 C  pz               50     -0.624435   6 C  pz        
    27     -0.535982   3 C  pz               54      0.535982   6 C  pz        
    14     -0.328926   2 C  pz               41      0.328926   5 C  pz        
     5     -0.295510   1 C  pz               32      0.295510   4 C  pz        
    18      0.282333   2 C  pz               45     -0.282333   5 C  pz        

 Vector   43  Occ=0.000000D+00  E= 7.873550D-01  Symmetry=e1g
              MO Center= -1.9D-14, -2.3D-14, -4.7D-15, r^2= 3.6D+00
   Bfn.  Coefficient  Atom+Function         Bfn.  Coefficient  Atom+Function  
  ----- ------------  ---------------      ----- ------------  ---------------
     5      0.550423   1 C  pz               32     -0.550423   4 C  pz        
    14     -0.531130   2 C  pz               41      0.531130   5 C  pz        
     9     -0.472454   1 C  pz               36      0.472454   4 C  pz        
    18      0.455894   2 C  pz               45     -0.455894   5 C  pz        

 Vector   44  Occ=0.000000D+00  E= 8.018407D-01  Symmetry=e1u
              MO Center= -8.7D-15,  3.4D-15,  4.3D-15, r^2= 4.6D+00
   Bfn.  Coefficient  Atom+Function         Bfn.  Coefficient  Atom+Function  
  ----- ------------  ---------------      ----- ------------  ---------------
    25      0.741866   3 C  px               52      0.741866   6 C  px        
    21     -0.528928   3 C  px               48     -0.528928   6 C  px        
    57      0.383072   8 H  s                63     -0.383072  11 H  s         
    55     -0.366913   7 H  s                61      0.366913  10 H  s         
    17      0.333625   2 C  py               44      0.333625   5 C  py        

 Vector   45  Occ=0.000000D+00  E= 8.018407D-01  Symmetry=e1u
              MO Center= -7.8D-15,  1.3D-14, -4.2D-17, r^2= 4.6D+00
   Bfn.  Coefficient  Atom+Function         Bfn.  Coefficient  Atom+Function  
  ----- ------------  ---------------      ----- ------------  ---------------
    17      0.662741   2 C  py               44      0.662741   5 C  py        
     8      0.481342   1 C  py               35      0.481342   4 C  py        
    13     -0.465369   2 C  py               40     -0.465369   5 C  py        
     7     -0.438356   1 C  px               34     -0.438356   4 C  px        
    59      0.433004   9 H  s                65     -0.433004  12 H  s         

 Vector   46  Occ=0.000000D+00  E= 8.317939D-01  Symmetry=e2u
              MO Center=  7.4D-15,  1.8D-14,  1.1D-17, r^2= 4.0D+00
   Bfn.  Coefficient  Atom+Function         Bfn.  Coefficient  Atom+Function  
  ----- ------------  ---------------      ----- ------------  ---------------
    27      0.862491   3 C  pz               54      0.862491   6 C  pz        
    23     -0.610210   3 C  pz               50     -0.610210   6 C  pz        
    18     -0.601690   2 C  pz               45     -0.601690   5 C  pz        
    14      0.425694   2 C  pz               41      0.425694   5 C  pz        
     9     -0.260801   1 C  pz               36     -0.260801   4 C  pz        

 Vector   47  Occ=0.000000D+00  E= 8.317939D-01  Symmetry=e2u
              MO Center= -4.4D-15,  2.3D-14,  4.2D-16, r^2= 4.0D+00
   Bfn.  Coefficient  Atom+Function         Bfn.  Coefficient  Atom+Function  
  ----- ------------  ---------------      ----- ------------  ---------------
     9      0.845345   1 C  pz               36      0.845345   4 C  pz        
    18     -0.648533   2 C  pz               45     -0.648533   5 C  pz        
     5     -0.598079   1 C  pz               32     -0.598079   4 C  pz        
    14      0.458835   2 C  pz               41      0.458835   5 C  pz        
    27     -0.196812   3 C  pz               54     -0.196812   6 C  pz        

 Vector   48  Occ=0.000000D+00  E= 8.848815D-01  Symmetry=a1g
              MO Center=  4.7D-15,  1.5D-15,  1.0D-17, r^2= 4.1D+00
   Bfn.  Coefficient  Atom+Function         Bfn.  Coefficient  Atom+Function  
  ----- ------------  ---------------      ----- ------------  ---------------
    55      0.361487   7 H  s                57      0.361487   8 H  s         
    59      0.361487   9 H  s                61      0.361487  10 H  s         
    63      0.361487  11 H  s                65      0.361487  12 H  s         
    56     -0.313207   7 H  s                58     -0.313207   8 H  s         
    60     -0.313207   9 H  s                62     -0.313207  10 H  s         

 Vector   49  Occ=0.000000D+00  E= 9.055961D-01  Symmetry=b2g
              MO Center=  7.7D-15, -1.8D-14,  1.7D-30, r^2= 4.5D+00
   Bfn.  Coefficient  Atom+Function         Bfn.  Coefficient  Atom+Function  
  ----- ------------  ---------------      ----- ------------  ---------------
     9      0.972892   1 C  pz               18      0.972892   2 C  pz        
    27      0.972892   3 C  pz               36     -0.972892   4 C  pz        
    45     -0.972892   5 C  pz               54     -0.972892   6 C  pz        
     5     -0.437033   1 C  pz               14     -0.437033   2 C  pz        
    23     -0.437033   3 C  pz               32      0.437033   4 C  pz        

 Vector   50  Occ=0.000000D+00  E= 9.702496D-01  Symmetry=b1u
              MO Center=  2.7D-13, -3.7D-13,  8.4D-20, r^2= 5.7D+00
   Bfn.  Coefficient  Atom+Function         Bfn.  Coefficient  Atom+Function  
  ----- ------------  ---------------      ----- ------------  ---------------
    16      1.995823   2 C  px               26      1.995823   3 C  py        
    43      1.995823   5 C  px               53      1.995823   6 C  py        
     6      1.503409   1 C  s                15      1.503409   2 C  s         
    24      1.503409   3 C  s                33     -1.503409   4 C  s         
    42     -1.503409   5 C  s                51     -1.503409   6 C  s         

 Vector   51  Occ=0.000000D+00  E= 1.011946D+00  Symmetry=e2g
              MO Center= -3.3D-13,  2.2D-13,  1.7D-17, r^2= 6.4D+00
   Bfn.  Coefficient  Atom+Function         Bfn.  Coefficient  Atom+Function  
  ----- ------------  ---------------      ----- ------------  ---------------
    16      1.478569   2 C  px               43     -1.478569   5 C  px        
    58      1.202735   8 H  s                64      1.202735  11 H  s         
    26     -1.181919   3 C  py               53      1.181919   6 C  py        
    60     -0.944255   9 H  s                66     -0.944255  12 H  s         
    12     -0.539026   2 C  px               39      0.539026   5 C  px        

 Vector   52  Occ=0.000000D+00  E= 1.011946D+00  Symmetry=e2g
              MO Center=  1.0D-13,  1.0D-13,  1.8D-18, r^2= 6.4D+00
   Bfn.  Coefficient  Atom+Function         Bfn.  Coefficient  Atom+Function  
  ----- ------------  ---------------      ----- ------------  ---------------
    56     -1.239565   7 H  s                62     -1.239565  10 H  s         
     7      1.131677   1 C  px               34     -1.131677   4 C  px        
     8      1.075717   1 C  py               35     -1.075717   4 C  py        
    26      0.988694   3 C  py               53     -0.988694   6 C  py        
    60      0.843633   9 H  s                66      0.843633  12 H  s         

 Vector   53  Occ=0.000000D+00  E= 1.103937D+00  Symmetry=a2g
              MO Center=  2.2D-15,  1.5D-15,  1.2D-30, r^2= 4.8D+00
   Bfn.  Coefficient  Atom+Function         Bfn.  Coefficient  Atom+Function  
  ----- ------------  ---------------      ----- ------------  ---------------
    17      3.043474   2 C  py               25     -3.043474   3 C  px        
    44     -3.043474   5 C  py               52      3.043474   6 C  px        
     7      2.227977   1 C  px                8     -2.227977   1 C  py        
    34     -2.227977   4 C  px               35      2.227977   4 C  py        
    16      0.815496   2 C  px               26     -0.815496   3 C  py        

 Vector   54  Occ=0.000000D+00  E= 1.116868D+00  Symmetry=e1u
              MO Center= -3.4D-14,  2.6D-14, -2.2D-17, r^2= 6.2D+00
   Bfn.  Coefficient  Atom+Function         Bfn.  Coefficient  Atom+Function  
  ----- ------------  ---------------      ----- ------------  ---------------
    56      0.987662   7 H  s                62     -0.987662  10 H  s         
    25     -0.825301   3 C  px               52     -0.825301   6 C  px        
    16     -0.719743   2 C  px               43     -0.719743   5 C  px        
     7     -0.709937   1 C  px               34     -0.709937   4 C  px        
    58     -0.653960   8 H  s                64      0.653960  11 H  s         

 Vector   55  Occ=0.000000D+00  E= 1.116868D+00  Symmetry=e1u
              MO Center= -2.7D-14,  1.6D-14,  3.0D-17, r^2= 6.2D+00
   Bfn.  Coefficient  Atom+Function         Bfn.  Coefficient  Atom+Function  
  ----- ------------  ---------------      ----- ------------  ---------------
    60      0.947791   9 H  s                66     -0.947791  12 H  s         
     8      0.793384   1 C  py               35      0.793384   4 C  py        
    17      0.783578   2 C  py               44      0.783578   5 C  py        
    58     -0.762889   8 H  s                64      0.762889  11 H  s         
    26      0.678020   3 C  py               53      0.678020   6 C  py        

 Vector   56  Occ=0.000000D+00  E= 1.298035D+00  Symmetry=e1u
              MO Center= -2.6D-15,  4.8D-15, -3.3D-17, r^2= 5.2D+00
   Bfn.  Coefficient  Atom+Function         Bfn.  Coefficient  Atom+Function  
  ----- ------------  ---------------      ----- ------------  ---------------
    15      2.483364   2 C  s                42     -2.483364   5 C  s         
    25      1.827411   3 C  px               52      1.827411   6 C  px        
     8     -1.743391   1 C  py               35     -1.743391   4 C  py        
     6     -1.436467   1 C  s                33      1.436467   4 C  s         
    24     -1.046897   3 C  s                51      1.046897   6 C  s         

 Vector   57  Occ=0.000000D+00  E= 1.298035D+00  Symmetry=e1u
              MO Center= -1.1D-14,  4.3D-14,  6.7D-18, r^2= 5.2D+00
   Bfn.  Coefficient  Atom+Function         Bfn.  Coefficient  Atom+Function  
  ----- ------------  ---------------      ----- ------------  ---------------
    24      2.263115   3 C  s                51     -2.263115   6 C  s         
    17      2.113081   2 C  py               44      2.113081   5 C  py        
     6     -2.038197   1 C  s                33      2.038197   4 C  s         
     7     -1.555785   1 C  px               34     -1.555785   4 C  px        
    25      1.165994   3 C  px               52      1.165994   6 C  px        

 Vector   58  Occ=0.000000D+00  E= 1.332035D+00  Symmetry=a1g
              MO Center= -9.0D-15, -5.5D-14, -4.0D-17, r^2= 5.2D+00
   Bfn.  Coefficient  Atom+Function         Bfn.  Coefficient  Atom+Function  
  ----- ------------  ---------------      ----- ------------  ---------------
     6      0.789518   1 C  s                15      0.789518   2 C  s         
    24      0.789518   3 C  s                33      0.789518   4 C  s         
    42      0.789518   5 C  s                51      0.789518   6 C  s         
     2     -0.632477   1 C  s                11     -0.632477   2 C  s         
    20     -0.632477   3 C  s                29     -0.632477   4 C  s         

 Vector   59  Occ=0.000000D+00  E= 1.448670D+00  Symmetry=b1u
              MO Center=  5.3D-15, -5.8D-15, -3.7D-18, r^2= 6.2D+00
   Bfn.  Coefficient  Atom+Function         Bfn.  Coefficient  Atom+Function  
  ----- ------------  ---------------      ----- ------------  ---------------
    16      2.427086   2 C  px               26      2.427086   3 C  py        
    43      2.427086   5 C  px               53      2.427086   6 C  py        
     7     -1.776750   1 C  px                8     -1.776750   1 C  py        
    34     -1.776750   4 C  px               35     -1.776750   4 C  py        
     6      1.376781   1 C  s                15      1.376781   2 C  s         

 Vector   60  Occ=0.000000D+00  E= 1.462688D+00  Symmetry=e2g
              MO Center= -1.6D-15,  4.9D-15, -3.5D-17, r^2= 5.6D+00
   Bfn.  Coefficient  Atom+Function         Bfn.  Coefficient  Atom+Function  
  ----- ------------  ---------------      ----- ------------  ---------------
    26     -1.658432   3 C  py               53      1.658432   6 C  py        
    16      1.561349   2 C  px               43     -1.561349   5 C  px        
    24      0.925847   3 C  s                51      0.925847   6 C  s         
    15     -0.881120   2 C  s                42     -0.881120   5 C  s         
    17     -0.795605   2 C  py               44      0.795605   5 C  py        

 Vector   61  Occ=0.000000D+00  E= 1.462688D+00  Symmetry=e2g
              MO Center=  2.7D-14,  9.6D-15,  2.8D-16, r^2= 5.6D+00
   Bfn.  Coefficient  Atom+Function         Bfn.  Coefficient  Atom+Function  
  ----- ------------  ---------------      ----- ------------  ---------------
     7      1.455616   1 C  px               34     -1.455616   4 C  px        
     8      1.414484   1 C  py               35     -1.414484   4 C  py        
    16      1.201237   2 C  px               43     -1.201237   5 C  px        
    26      1.063196   3 C  py               53     -1.063196   6 C  py        
     6      1.043253   1 C  s                33      1.043253   4 C  s         

 Vector   62  Occ=0.000000D+00  E= 1.544224D+00  Symmetry=e1u
              MO Center=  8.6D-16, -2.2D-15, -6.1D-17, r^2= 2.4D+00
   Bfn.  Coefficient  Atom+Function         Bfn.  Coefficient  Atom+Function  
  ----- ------------  ---------------      ----- ------------  ---------------
    15      1.314057   2 C  s                42     -1.314057   5 C  s         
    11     -1.030659   2 C  s                38      1.030659   5 C  s         
     6     -0.734982   1 C  s                33      0.734982   4 C  s         
     2      0.576471   1 C  s                24     -0.579076   3 C  s         
    29     -0.576471   4 C  s                51      0.579076   6 C  s         

 Vector   63  Occ=0.000000D+00  E= 1.544224D+00  Symmetry=e1u
              MO Center=  9.0D-15,  3.0D-15, -3.0D-16, r^2= 2.4D+00
   Bfn.  Coefficient  Atom+Function         Bfn.  Coefficient  Atom+Function  
  ----- ------------  ---------------      ----- ------------  ---------------
    24     -1.183013   3 C  s                51      1.183013   6 C  s         
     6      1.093001   1 C  s                33     -1.093001   4 C  s         
    20      0.927877   3 C  s                47     -0.927877   6 C  s         
     2     -0.857277   1 C  s                29      0.857277   4 C  s         
    17     -0.530984   2 C  py               44     -0.530984   5 C  py        

 Vector   64  Occ=0.000000D+00  E= 1.886436D+00  Symmetry=e2g
              MO Center= -1.5D-15, -6.0D-15, -9.0D-17, r^2= 2.8D+00
   Bfn.  Coefficient  Atom+Function         Bfn.  Coefficient  Atom+Function  
  ----- ------------  ---------------      ----- ------------  ---------------
    24      2.990043   3 C  s                51      2.990043   6 C  s         
    15     -2.612251   2 C  s                42     -2.612251   5 C  s         
    26      1.867720   3 C  py               53     -1.867720   6 C  py        
    16     -1.655967   2 C  px               43      1.655967   5 C  px        
    20     -1.055587   3 C  s                47     -1.055587   6 C  s         

 Vector   65  Occ=0.000000D+00  E= 1.886436D+00  Symmetry=e2g
              MO Center=  5.1D-15,  4.3D-15,  6.0D-18, r^2= 2.8D+00
   Bfn.  Coefficient  Atom+Function         Bfn.  Coefficient  Atom+Function  
  ----- ------------  ---------------      ----- ------------  ---------------
     6      3.234486   1 C  s                33      3.234486   4 C  s         
    15     -1.944420   2 C  s                42     -1.944420   5 C  s         
     8     -1.479356   1 C  py               35      1.479356   4 C  py        
     7     -1.418151   1 C  px               34      1.418151   4 C  px        
    24     -1.290066   3 C  s                51     -1.290066   6 C  s         

 Vector   66  Occ=0.000000D+00  E= 2.466779D+00  Symmetry=b1u
              MO Center=  9.3D-15, -1.2D-14,  7.1D-18, r^2= 3.8D+00
   Bfn.  Coefficient  Atom+Function         Bfn.  Coefficient  Atom+Function  
  ----- ------------  ---------------      ----- ------------  ---------------
     6      6.738363   1 C  s                15      6.738363   2 C  s         
    24      6.738363   3 C  s                33     -6.738363   4 C  s         
    42     -6.738363   5 C  s                51     -6.738363   6 C  s         
    16      4.177423   2 C  px               26      4.177423   3 C  py        
    43      4.177423   5 C  px               53      4.177423   6 C  py        


 center of mass
 --------------
 x =   0.00000000 y =   0.00000000 z =   0.00000000

 moments of inertia (a.u.)
 ------------------
         320.062201089014           0.000000000000           0.000000000000
           0.000000000000         320.062201089014           0.000000000000
           0.000000000000           0.000000000000         640.124402178029

     Multipole analysis of the density
     ---------------------------------

     L   x y z        total         alpha         beta         nuclear
     -   - - -        -----         -----         ----         -------
     0   0 0 0     -0.000000    -21.000000    -21.000000     42.000000

     1   1 0 0      0.000000      0.000000      0.000000      0.000000
     1   0 1 0      0.000000      0.000000      0.000000      0.000000
     1   0 0 1     -0.000000     -0.000000     -0.000000      0.000000

     2   2 0 0    -23.154082   -108.016459   -108.016459    192.878835
     2   1 1 0      0.000000      0.000000      0.000000      0.000000
     2   1 0 1      0.000000      0.000000      0.000000      0.000000
     2   0 2 0    -23.154082   -108.016459   -108.016459    192.878835
     2   0 1 1      0.000000      0.000000      0.000000      0.000000
     2   0 0 2    -29.714345    -14.857172    -14.857172      0.000000


 Task  times  cpu:        0.7s     wall:        1.2s


                                NWChem Input Module
                                -------------------




                           NWChem Geometry Optimization
                           ----------------------------




                       total energy of benzene, B3LYP/3-21G


  no constraints, skipping    0.0000000000000000     
 maximum gradient threshold         (gmax) =   0.000450
 rms gradient threshold             (grms) =   0.000300
 maximum cartesian step threshold   (xmax) =   0.001800
 rms cartesian step threshold       (xrms) =   0.001200
 fixed trust radius                (trust) =   0.300000
 maximum step size to saddle      (sadstp) =   0.100000
 energy precision                  (eprec) =   5.0D-06
 maximum number of steps          (nptopt) =   40
 initial hessian option           (inhess) =    0
 line search option               (linopt) =    1
 hessian update option            (modupd) =    1
 saddle point option              (modsad) =    0
 initial eigen-mode to follow     (moddir) =    0
 initial variable to follow       (vardir) =    0
 follow first negative mode     (firstneg) =    T
 apply conjugacy                    (opcg) =    F
 source of zmatrix                         =   autoz   


          -------------------
          Energy Minimization
          -------------------


 Names of Z-matrix variables 
    1              2              3              4              5         
    6              7              8              9             10         
   11             12             13             14             15         
   16             17             18             19             20         
   21             22             23             24             25         
   26             27             28             29             30         
   31             32             33             34             35         
   36             37             38             39             40         
   41             42             43             44             45         
   46             47             48             49             50         
   51             52             53             54         

 Variables with the same non-blank name are constrained to be equal


 Using diagonal initial Hessian 
 Scaling for Hessian diagonals: bonds = 1.00  angles = 0.25  torsions = 0.10

          --------
          Step   0
          --------


                         Geometry "geometry" -> "geometry"
                         ---------------------------------

 Output coordinates in angstroms (scale by  1.889725989 to convert to a.u.)

  No.       Tag          Charge          X              Y              Z
 ---- ---------------- ---------- -------------- -------------- --------------
    1 C                    6.0000     0.99261000     0.99261000     0.00000000
    2 C                    6.0000    -1.35593048     0.36332048     0.00000000
    3 C                    6.0000     0.36332048    -1.35593048     0.00000000
    4 C                    6.0000    -0.99261000    -0.99261000     0.00000000
    5 C                    6.0000     1.35593048    -0.36332048     0.00000000
    6 C                    6.0000    -0.36332048     1.35593048     0.00000000
    7 H                    1.0000     1.75792000     1.75792000     0.00000000
    8 H                    1.0000    -2.40136338     0.64344338     0.00000000
    9 H                    1.0000     0.64344338    -2.40136338     0.00000000
   10 H                    1.0000    -1.75792000    -1.75792000     0.00000000
   11 H                    1.0000     2.40136338    -0.64344338     0.00000000
   12 H                    1.0000    -0.64344338     2.40136338     0.00000000

      Atomic Mass 
      ----------- 

      C                 12.000000
      H                  1.007825


 Effective nuclear repulsion energy (a.u.)     202.4405395545

            Nuclear Dipole moment (a.u.) 
            ----------------------------
        X                 Y               Z
 ---------------- ---------------- ----------------
     0.0000000000     0.0000000000     0.0000000000

      Symmetry information
      --------------------

 Group name             D6h       
 Group number             30
 Group order              24
 No. of unique centers     2

      Symmetry unique atoms

     1    7


                                 NWChem DFT Module
                                 -----------------


                       total energy of benzene, B3LYP/3-21G




 Summary of "ao basis" -> "ao basis" (cartesian)
 ------------------------------------------------------------------------------
       Tag                 Description            Shells   Functions and Types
 ---------------- ------------------------------  ------  ---------------------
 C                           3-21G                   5        9   3s2p
 H                           3-21G                   2        2   2s


      Symmetry analysis of basis
      --------------------------

        a1g         7
        a1u         0
        a2g         2
        a2u         2
        b1g         0
        b1u         7
        b2g         2
        b2u         2
        e1g         4
        e1u        18
        e2g        18
        e2u         4


  The DFT is already converged 

         Total DFT energy =   -230.975522600334


            General Information
            -------------------
          SCF calculation type: DFT
          Wavefunction type:  closed shell.
          No. of atoms     :    12
          No. of electrons :    42
           Alpha electrons :    21
            Beta electrons :    21
          Charge           :     0
          Spin multiplicity:     1
          Use of symmetry is: on ; symmetry adaption is: on 
          Maximum number of iterations:  50
          AO basis - number of functions:    66
                     number of shells:    42
          Convergence on energy requested:  1.00D-06
          Convergence on density requested:  1.00D-05
          Convergence on gradient requested:  5.00D-04

              XC Information
              --------------
                         B3LYP Method XC Potential
                     Hartree-Fock (Exact) Exchange  0.200          
                        Slater Exchange Functional  0.800 local    
                    Becke 1988 Exchange Functional  0.720 non-local
              Lee-Yang-Parr Correlation Functional  0.810          
                  VWN I RPA Correlation Functional  0.190 local    

             Grid Information
             ----------------
          Grid used for XC integration:  medium    
          Radial quadrature: Mura-Knowles        
          Angular quadrature: Lebedev. 
          Tag              B.-S. Rad. Rad. Pts. Rad. Cut. Ang. Pts.
          ---              ---------- --------- --------- ---------
          C                   0.70       49          10.0       434
          H                   0.35       45          11.0       434
          Grid pruning is: on 
          Number of quadrature shells:    94
          Spatial weights used:  Erf1

          Convergence Information
          -----------------------
          Convergence aids based upon iterative change in 
          total energy or number of iterations. 
          Levelshifting, if invoked, occurs when the 
          HOMO/LUMO gap drops below (HL_TOL):  1.00D-02
          DIIS, if invoked, will attempt to extrapolate 
          using up to (NFOCK): 10 stored Fock matrices.

                    Damping( 0%)  Levelshifting(0.5)       DIIS
                  --------------- ------------------- ---------------
          dE  on:    start            ASAP                start   
          dE off:    2 iters         50 iters            50 iters 


      Screening Tolerance Information
      -------------------------------
          Density screening/tol_rho:  1.00D-10
          AO Gaussian exp screening on grid/accAOfunc:  14
          CD Gaussian exp screening on grid/accCDfunc:  20
          XC Gaussian exp screening on grid/accXCfunc:  20
          Schwarz screening/accCoul:  1.00D-08



                            NWChem DFT Gradient Module
                            --------------------------


                       total energy of benzene, B3LYP/3-21G



  charge          =   0.00
  wavefunction    = closed shell

  Using symmetry


                         DFT ENERGY GRADIENTS

    atom               coordinates                        gradient
                 x          y          z           x          y          z
   1 C       1.875761   1.875761   0.000000    0.005117   0.005117   0.000000
   2 C      -2.562337   0.686576   0.000000   -0.006990   0.001873   0.000000
   3 C       0.686576  -2.562337   0.000000    0.001873  -0.006990   0.000000
   4 C      -1.875761  -1.875761   0.000000   -0.005117  -0.005117   0.000000
   5 C       2.562337  -0.686576   0.000000    0.006990  -0.001873   0.000000
   6 C      -0.686576   2.562337   0.000000   -0.001873   0.006990   0.000000
   7 H       3.321987   3.321987   0.000000   -0.000813  -0.000813   0.000000
   8 H      -4.537919   1.215932   0.000000    0.001111  -0.000298   0.000000
   9 H       1.215932  -4.537919   0.000000   -0.000298   0.001111   0.000000
  10 H      -3.321987  -3.321987   0.000000    0.000813   0.000813   0.000000
  11 H       4.537919  -1.215932   0.000000   -0.001111   0.000298   0.000000
  12 H      -1.215932   4.537919   0.000000    0.000298  -0.001111   0.000000

                 ----------------------------------------
                 |  Time  |  1-e(secs)   |  2-e(secs)   |
                 ----------------------------------------
[...]
           5    -0.02926     0.01181    -0.07108     0.04257    -0.05321     0.03279
           6     0.00000    -0.00000    -0.00000    -0.00000     0.00000    -0.00000
           7    -0.02926    -0.01346    -0.07079    -0.04257    -0.05457    -0.03047
           8     0.10937    -0.08795     0.03113    -0.01141    -0.01548    -0.00659
           9     0.00000     0.00000    -0.00000     0.00000     0.00000     0.00000
          10    -0.08013    -0.04881     0.06749     0.03116     0.00221     0.04572
          11    -0.08013     0.05036     0.06634    -0.03116     0.00024    -0.04577
          12    -0.00000    -0.00000     0.00000     0.00000     0.00000     0.00000
          13     0.10938     0.08865     0.02907     0.01141     0.01519    -0.00725
          14    -0.02926     0.01182    -0.07108     0.04257     0.05321    -0.03279
          15    -0.00000    -0.00000     0.00000     0.00000    -0.00000    -0.00000
          16    -0.02926    -0.01346    -0.07079    -0.04257     0.05457     0.03047
          17     0.10937    -0.08795     0.03113    -0.01141     0.01549     0.00659
          18    -0.00000    -0.00000     0.00000     0.00000    -0.00000     0.00000
          19    -0.07958    -0.27767     0.07470     0.26669    -0.00918    -0.37463
          20    -0.07957     0.27933     0.06823    -0.26669     0.00696     0.37467
          21    -0.00000    -0.00000     0.00000    -0.00000     0.00000     0.00000
          22     0.10866     0.13512    -0.04093     0.09762    -0.11807     0.06983
          23    -0.02886     0.16356    -0.34452     0.36430    -0.43749     0.26578
          24    -0.00000    -0.00000     0.00000     0.00000    -0.00000     0.00000
          25    -0.02887    -0.17152    -0.34062    -0.36430    -0.44853    -0.24670
          26     0.10866    -0.13603    -0.03778    -0.09762    -0.12097    -0.06468
          27    -0.00000    -0.00000     0.00000    -0.00000    -0.00000     0.00000
          28    -0.07958    -0.27767     0.07470     0.26669     0.00918     0.37463
          29    -0.07957     0.27933     0.06823    -0.26669    -0.00696    -0.37467
          30     0.00000     0.00000    -0.00000    -0.00000    -0.00000    -0.00000
          31     0.10866     0.13512    -0.04093     0.09762     0.11807    -0.06982
          32    -0.02886     0.16357    -0.34452     0.36430     0.43749    -0.26578
          33     0.00000     0.00000    -0.00000    -0.00000     0.00000     0.00000
          34    -0.02887    -0.17153    -0.34063    -0.36430     0.44853     0.24670
          35     0.10866    -0.13603    -0.03778    -0.09762     0.12097     0.06468
          36     0.00000     0.00000    -0.00000    -0.00000     0.00000    -0.00000

                   25          26          27          28          29          30
 
 P.Frequency     1316.59     1436.67     1540.31     1540.31     1627.25     1627.25
 
           1    -0.07729     0.03813     0.07166     0.04115    -0.03002    -0.10485
           2     0.07729    -0.03813    -0.07000     0.04392    -0.06105     0.09037
           3     0.00000     0.00000     0.00000     0.00000     0.00000     0.00000
           4    -0.02829     0.01396    -0.06315     0.00783    -0.05632    -0.04587
           5    -0.10558     0.05209    -0.03669    -0.09090    -0.12004     0.06407
           6     0.00000    -0.00000     0.00000    -0.00000     0.00000    -0.00000
           7     0.10558    -0.05209     0.03311    -0.09226    -0.09425    -0.09814
           8     0.02829    -0.01396     0.06341     0.00536    -0.06777     0.02614
           9     0.00000     0.00000     0.00000     0.00000     0.00000     0.00000
          10    -0.07729    -0.03813     0.07166     0.04115     0.03002     0.10485
          11     0.07729     0.03813    -0.07000     0.04392     0.06105    -0.09037
          12    -0.00000     0.00000    -0.00000    -0.00000     0.00000     0.00000
          13    -0.02829    -0.01396    -0.06315     0.00783     0.05632     0.04587
          14    -0.10558    -0.05209    -0.03669    -0.09090     0.12003    -0.06407
          15    -0.00000    -0.00000    -0.00000    -0.00000    -0.00000    -0.00000
          16     0.10558     0.05209     0.03311    -0.09226     0.09425     0.09814
          17     0.02829     0.01396     0.06341     0.00536     0.06777    -0.02614
          18    -0.00000     0.00000    -0.00000    -0.00000    -0.00000     0.00000
          19     0.10754    -0.25568    -0.28421     0.05730    -0.07259     0.13592
          20    -0.10754     0.25568     0.28624     0.04616    -0.02687    -0.15173
          21     0.00000     0.00000    -0.00000    -0.00000     0.00000     0.00000
          22     0.03936    -0.09359    -0.00654     0.12592     0.02516    -0.08330
          23     0.14690    -0.34927     0.21762     0.32384     0.19236    -0.05398
          24    -0.00000     0.00000    -0.00000     0.00000    -0.00000     0.00000
          25    -0.14690     0.34927    -0.20480     0.33209     0.16614     0.11096
          26    -0.03936     0.09359     0.01146     0.12557    -0.00191     0.08700
          27     0.00000     0.00000    -0.00000     0.00000    -0.00000    -0.00000
          28     0.10754     0.25568    -0.28421     0.05730     0.07259    -0.13592
          29    -0.10754    -0.25568     0.28624     0.04616     0.02687     0.15173
          30    -0.00000     0.00000    -0.00000     0.00000    -0.00000    -0.00000
          31     0.03936     0.09359    -0.00654     0.12592    -0.02516     0.08330
          32     0.14690     0.34926     0.21762     0.32384    -0.19236     0.05398
          33     0.00000     0.00000     0.00000    -0.00000    -0.00000     0.00000
          34    -0.14690    -0.34926    -0.20481     0.33209    -0.16614    -0.11096
          35    -0.03936    -0.09359     0.01146     0.12557     0.00191    -0.08700
          36    -0.00000     0.00000    -0.00000     0.00000    -0.00000     0.00000

                   31          32          33          34          35          36
 
 P.Frequency     3183.01     3191.75     3191.75     3208.21     3208.21     3221.52
 
           1    -0.02305     0.00174     0.03307    -0.00240    -0.03444    -0.02520
           2    -0.02305    -0.00036     0.03312     0.00175    -0.03448    -0.02520
           3     0.00000    -0.00000     0.00000     0.00000     0.00000    -0.00000
           4     0.03148     0.03944     0.02213     0.04093    -0.02326     0.03442
           5    -0.00844    -0.01131    -0.00458    -0.00942     0.00885    -0.00922
           6     0.00000    -0.00000    -0.00000     0.00000    -0.00000    -0.00000
           7    -0.00844     0.01111    -0.00505     0.00959     0.00867    -0.00922
           8     0.03148    -0.03848     0.02375    -0.04136    -0.02249     0.03442
           9     0.00000     0.00000    -0.00000    -0.00000    -0.00000    -0.00000
          10    -0.02305    -0.00174    -0.03307    -0.00240    -0.03444     0.02520
          11    -0.02305     0.00036    -0.03312     0.00175    -0.03448     0.02520
          12     0.00000    -0.00000    -0.00000    -0.00000    -0.00000    -0.00000
          13     0.03148    -0.03944    -0.02213     0.04093    -0.02326    -0.03442
          14    -0.00844     0.01131     0.00458    -0.00942     0.00885     0.00922
          15    -0.00000    -0.00000    -0.00000     0.00000     0.00000    -0.00000
          16    -0.00844    -0.01111     0.00505     0.00959     0.00867     0.00922
          17     0.03148     0.03848    -0.02375    -0.04136    -0.02249    -0.03442
          18    -0.00000    -0.00000    -0.00000    -0.00000     0.00000    -0.00000
          19     0.27632    -0.00978    -0.39015     0.00685     0.38877     0.27409
          20     0.27632    -0.00647    -0.39022     0.00043     0.38883     0.27409
          21     0.00000    -0.00000    -0.00000     0.00000    -0.00000     0.00000
          22    -0.37749    -0.46685    -0.25742    -0.45806     0.26884    -0.37441
          23     0.10115     0.12626     0.06685     0.12035    -0.07608     0.10032
          24    -0.00000     0.00000     0.00000    -0.00000     0.00000    -0.00000
          25     0.10115    -0.12337     0.07204    -0.12175    -0.07381     0.10032
          26    -0.37749     0.45573    -0.27663     0.46301     0.26021    -0.37441
          27     0.00000    -0.00000     0.00000     0.00000     0.00000    -0.00000
          28     0.27634     0.00978     0.39014     0.00685     0.38876    -0.27409
          29     0.27634     0.00647     0.39021     0.00043     0.38882    -0.27409
          30    -0.00000    -0.00000    -0.00000    -0.00000     0.00000     0.00000
          31    -0.37748     0.46685     0.25743    -0.45806     0.26884     0.37441
          32     0.10115    -0.12626    -0.06685     0.12035    -0.07608    -0.10032
          33    -0.00000     0.00000    -0.00000    -0.00000    -0.00000    -0.00000
          34     0.10115     0.12337    -0.07205    -0.12175    -0.07381    -0.10032
          35    -0.37748    -0.45573     0.27664     0.46301     0.26022     0.37441
          36    -0.00000    -0.00000     0.00000    -0.00000    -0.00000    -0.00000



 ----------------------------------------------------------------------------
 Normal Eigenvalue ||    Projected Derivative Dipole Moments (debye/angs)
  Mode   [cm**-1]  ||      [d/dqX]             [d/dqY]           [d/dqZ]
 ------ ---------- || ------------------ ------------------ -----------------
    1        0.000 ||      -0.000               0.000             0.000
    2        0.000 ||       0.000               0.000            -0.000
    3        0.000 ||      -0.000              -0.000            -0.000
    4        0.000 ||      -0.000              -0.000             0.000
    5        0.000 ||       0.000              -0.000             0.000
    6        0.000 ||      -0.000               0.000            -0.000
    7      423.192 ||      -0.000              -0.000             0.000
    8      423.197 ||       0.000               0.000             0.000
    9      647.753 ||       0.000              -0.000             0.000
   10      647.758 ||       0.000               0.000             0.000
   11      698.887 ||      -0.000              -0.000             1.668
   12      754.393 ||       0.000               0.000            -0.000
   13      878.123 ||      -0.000              -0.000            -0.000
   14      878.129 ||      -0.000              -0.000             0.000
   15     1007.865 ||       0.000               0.000            -0.000
   16     1007.868 ||       0.000               0.000            -0.000
   17     1015.016 ||       0.000               0.000             0.000
   18     1048.290 ||      -0.000              -0.000            -0.000
   19     1064.414 ||       0.000               0.000             0.000
   20     1068.904 ||      -0.221               0.216            -0.000
   21     1068.915 ||       0.216               0.221            -0.000
   22     1228.198 ||       0.000              -0.000             0.000
   23     1238.051 ||      -0.000              -0.000            -0.000
   24     1238.051 ||      -0.000               0.000             0.000
   25     1316.590 ||       0.000              -0.000             0.000
   26     1436.668 ||       0.000              -0.000             0.000
   27     1540.311 ||      -0.365               0.379             0.000
   28     1540.314 ||       0.379               0.365             0.000
   29     1627.251 ||       0.000               0.000            -0.000
   30     1627.251 ||       0.000              -0.000             0.000
   31     3183.011 ||      -0.000              -0.000            -0.000
   32     3191.747 ||      -0.000               0.000             0.000
   33     3191.747 ||      -0.000              -0.000             0.000
   34     3208.206 ||       0.626              -0.638             0.000
   35     3208.213 ||      -0.638              -0.626             0.000
   36     3221.520 ||       0.000               0.000             0.000
 ----------------------------------------------------------------------------



  
  
 ----------------------------------------------------------------------------
 Normal Eigenvalue ||           Projected Infra Red Intensities
  Mode   [cm**-1]  || [atomic units] [(debye/angs)**2] [(KM/mol)] [arbitrary]
 ------ ---------- || -------------- ----------------- ---------- -----------
    1        0.000 ||    0.000000           0.000         0.000       0.000
    2        0.000 ||    0.000000           0.000         0.000       0.000
    3        0.000 ||    0.000000           0.000         0.000       0.000
    4        0.000 ||    0.000000           0.000         0.000       0.000
    5        0.000 ||    0.000000           0.000         0.000       0.000
    6        0.000 ||    0.000000           0.000         0.000       0.000
    7      423.192 ||    0.000000           0.000         0.000       0.000
    8      423.197 ||    0.000000           0.000         0.000       0.000
    9      647.753 ||    0.000000           0.000         0.000       0.000
   10      647.758 ||    0.000000           0.000         0.000       0.000
   11      698.887 ||    0.120602           2.782       117.569     195.460
   12      754.393 ||    0.000000           0.000         0.000       0.000
   13      878.123 ||    0.000000           0.000         0.000       0.000
   14      878.129 ||    0.000000           0.000         0.000       0.000
   15     1007.865 ||    0.000000           0.000         0.000       0.000
   16     1007.868 ||    0.000000           0.000         0.000       0.000
   17     1015.016 ||    0.000000           0.000         0.000       0.000
   18     1048.290 ||    0.000000           0.000         0.000       0.000
   19     1064.414 ||    0.000000           0.000         0.000       0.000
   20     1068.904 ||    0.004133           0.095         4.029       6.698
   21     1068.915 ||    0.004133           0.095         4.029       6.698
   22     1228.198 ||    0.000000           0.000         0.000       0.000
   23     1238.051 ||    0.000000           0.000         0.000       0.000
   24     1238.051 ||    0.000000           0.000         0.000       0.000
   25     1316.590 ||    0.000000           0.000         0.000       0.000
   26     1436.668 ||    0.000000           0.000         0.000       0.000
   27     1540.311 ||    0.012006           0.277        11.704      19.458
   28     1540.314 ||    0.012005           0.277        11.703      19.457
   29     1627.251 ||    0.000000           0.000         0.000       0.000
   30     1627.251 ||    0.000000           0.000         0.000       0.000
   31     3183.011 ||    0.000000           0.000         0.000       0.000
   32     3191.747 ||    0.000000           0.000         0.000       0.000
   33     3191.747 ||    0.000000           0.000         0.000       0.000
   34     3208.206 ||    0.034621           0.799        33.751      56.111
   35     3208.213 ||    0.034626           0.799        33.755      56.118
   36     3221.520 ||    0.000000           0.000         0.000       0.000
 ----------------------------------------------------------------------------



 vib:animation  F

 Task  times  cpu:       47.6s     wall:       48.3s


                                NWChem Input Module
                                -------------------


 Summary of allocated global arrays
-----------------------------------
  No active global arrays


MA_summarize_allocated_blocks: starting scan ...
heap block 'gridpts', handle 112, address 0x55baff05bfd8:
	type of elements:		double precision
	number of elements:		33554432
	address of client space:	0x55baff05c040
	index for client space:		10040447
	total number of bytes:		268435568
MA_summarize_allocated_blocks: scan completed: 1 heap block, 0 stack blocks
MA usage statistics:

	allocation statistics:
					      heap	     stack
					      ----	     -----
	current number of blocks	         1	         0
	maximum number of blocks	        26	        62
	current total bytes		 268435568	         0
	maximum total bytes		 269645440	  66767144
	maximum total K-bytes		    269646	     66768
	maximum total M-bytes		       270	        67


                                     CITATION
                                     --------
                Please cite the following reference when publishing
                           results obtained with NWChem:

          E. Apra, E. J. Bylaska, W. A. de Jong, N. Govind, K. Kowalski,
       T. P. Straatsma, M. Valiev, H. J. J. van Dam, Y. Alexeev, J. Anchell,
       V. Anisimov, F. W. Aquino, R. Atta-Fynn, J. Autschbach, N. P. Bauman,
     J. C. Becca, D. E. Bernholdt, K. Bhaskaran-Nair, S. Bogatko, P. Borowski,
         J. Boschen, J. Brabec, A. Bruner, E. Cauet, Y. Chen, G. N. Chuev,
      C. J. Cramer, J. Daily, M. J. O. Deegan, T. H. Dunning Jr., M. Dupuis,
   K. G. Dyall, G. I. Fann, S. A. Fischer, A. Fonari, H. Fruchtl, L. Gagliardi,
      J. Garza, N. Gawande, S. Ghosh, K. Glaesemann, A. W. Gotz, J. Hammond,
       V. Helms, E. D. Hermes, K. Hirao, S. Hirata, M. Jacquelin, L. Jensen,
   B. G. Johnson, H. Jonsson, R. A. Kendall, M. Klemm, R. Kobayashi, V. Konkov,
      S. Krishnamoorthy, M. Krishnan, Z. Lin, R. D. Lins, R. J. Littlefield,
      A. J. Logsdail, K. Lopata, W. Ma, A. V. Marenich, J. Martin del Campo,
   D. Mejia-Rodriguez, J. E. Moore, J. M. Mullin, T. Nakajima, D. R. Nascimento,
    J. A. Nichols, P. J. Nichols, J. Nieplocha, A. Otero-de-la-Roza, B. Palmer,
    A. Panyala, T. Pirojsirikul, B. Peng, R. Peverati, J. Pittner, L. Pollack,
   R. M. Richard, P. Sadayappan, G. C. Schatz, W. A. Shelton, D. W. Silverstein,
   D. M. A. Smith, T. A. Soares, D. Song, M. Swart, H. L. Taylor, G. S. Thomas,
            V. Tipparaju, D. G. Truhlar, K. Tsemekhman, T. Van Voorhis,
      A. Vazquez-Mayagoitia, P. Verma, O. Villa, A. Vishnu, K. D. Vogiatzis,
        D. Wang, J. H. Weare, M. J. Williamson, T. L. Windus, K. Wolinski,
        A. T. Wong, Q. Wu, C. Yang, Q. Yu, M. Zacharias, Z. Zhang, Y. Zhao,
                                and R. J. Harrison
                        "NWChem: Past, present, and future
                         J. Chem. Phys. 152, 184102 (2020)
                               doi:10.1063/5.0004997

                                      AUTHORS
                                      -------
  E. Apra, E. J. Bylaska, N. Govind, K. Kowalski, M. Valiev, D. Mejia-Rodriguez,
       A. Kunitsa, N. P. Bauman, A. Panyala, W. A. de Jong, T. P. Straatsma,
   H. J. J. van Dam, D. Wang, T. L. Windus, J. Hammond, J. Autschbach, A. Woods,
    K. Bhaskaran-Nair, J. Brabec, K. Lopata, S. A. Fischer, S. Krishnamoorthy,
     M. Jacquelin, W. Ma, M. Klemm, O. Villa, Y. Chen, V. Anisimov, F. Aquino,
     S. Hirata, M. T. Hackler, E. Hermes, L. Jensen, J. E. Moore, J. C. Becca,
      V. Konjkov, T. Risthaus, M. Malagoli, A. Marenich, A. Otero-de-la-Roza,
        J. Mullin, P. Nichols, R. Peverati, J. Pittner, Y. Zhao, P.-D. Fan,
        A. Fonari, M. J. Williamson, R. J. Harrison, J. R. Rehr, M. Dupuis,
     D. Silverstein, D. M. A. Smith, J. Nieplocha, V. Tipparaju, M. Krishnan,
     B. E. Van Kuiken, A. Vazquez-Mayagoitia, M. Swart, Q. Wu, T. Van Voorhis,
     A. A. Auer, M. Nooijen, L. D. Crosby, E. Brown, G. Cisneros, G. I. Fann,
   H. Fruchtl, J. Garza, K. Hirao, R. A. Kendall, J. A. Nichols, K. Tsemekhman,
    K. Wolinski, J. Anchell, D. E. Bernholdt, P. Borowski, T. Clark, D. Clerc,
   H. Dachsel, M. J. O. Deegan, K. Dyall, D. Elwood, E. Glendening, M. Gutowski,
   A. C. Hess, J. Jaffe, B. G. Johnson, J. Ju, R. Kobayashi, R. Kutteh, Z. Lin,
   R. Littlefield, X. Long, B. Meng, T. Nakajima, S. Niu, L. Pollack, M. Rosing,
   K. Glaesemann, G. Sandrone, M. Stave, H. Taylor, G. Thomas, J. H. van Lenthe,
                               A. T. Wong, Z. Zhang.

 Total times  cpu:       50.1s     wall:       56.7s
