SLURM_JOBID=13773999
SLURM_JOB_NODELIST=cpn-p27-25
SLURM_NNODES=1
SLURMTMPDIR=/scratch/13773999
working directory=/user/mrecio/Tutorials_NWChem/3_TDDFT/h2o
 argument  1 = h2o.nw
  NWChem w/ OpenMP: maximum threads =    2



============================== echo of input deck ==============================
echo
start tddft_h2o

title "TDDFT H2O B3LYP/6-31G** QA TEST"

geometry
O     0.00000000     0.00000000     0.12982363
H     0.75933475     0.00000000    -0.46621158
H    -0.75933475     0.00000000    -0.46621158
end

basis
 O library 6-31G**
 H library 6-31G**
end

dft
 xc b3lyp
end

tddft
 nroots 10
end
task tddft energy
================================================================================


                                         
                                         


             Northwest Computational Chemistry Package (NWChem) 7.2.0
             --------------------------------------------------------


                    Environmental Molecular Sciences Laboratory
                       Pacific Northwest National Laboratory
                                Richland, WA 99352

                              Copyright (c) 1994-2022
                       Pacific Northwest National Laboratory
                            Battelle Memorial Institute

             NWChem is an open-source computational chemistry package
                        distributed under the terms of the
                      Educational Community License (ECL) 2.0
             A copy of the license is included with this distribution
                              in the LICENSE.TXT file

                                  ACKNOWLEDGMENT
                                  --------------

            This software and its documentation were developed at the
            EMSL at Pacific Northwest National Laboratory, a multiprogram
            national laboratory, operated for the U.S. Department of Energy
            by Battelle under Contract Number DE-AC05-76RL01830. Support
            for this work was provided by the Department of Energy Office
            of Biological and Environmental Research, Office of Basic
            Energy Sciences, and the Office of Advanced Scientific Computing.


           Job information
           ---------------

    hostname        = cpn-p27-25.compute.cbls.ccr.buffalo.edu
    program         = /projects/academic/cyberwksp21/Software/nwchem_gcc/bin/nwchem
    date            = Tue Jun 20 15:33:25 2023

    compiled        = Mon_Jun_19_04:47:38_2023
    source          = /user/dmrodriguez/nwchem_gcc
    nwchem branch   = 7.2.0
    nwchem revision = 67bd80fc
    ga revision     = 5.8.0
    use scalapack   = T
    input           = h2o.nw
    prefix          = tddft_h2o.
    data base       = ./tddft_h2o.db
    status          = startup
    nproc           =        5
    time left       =     -1s



           Memory information
           ------------------

    heap     =   26214400 doubles =    200.0 Mbytes
    stack    =   26214397 doubles =    200.0 Mbytes
    global   =   52428800 doubles =    400.0 Mbytes (distinct from heap & stack)
    total    =  104857597 doubles =    800.0 Mbytes
    verify   = yes
    hardfail = no 


           Directory information
           ---------------------

  0 permanent = .
  0 scratch   = .




                                NWChem Input Module
                                -------------------


                          TDDFT H2O B3LYP/6-31G** QA TEST
                          -------------------------------

 Scaling coordinates for geometry "geometry" by  1.889725989
 (inverse scale =  0.529177249)

 C2V symmetry detected

          ------
          auto-z
          ------
  no constraints, skipping    0.0000000000000000     
  no constraints, skipping    0.0000000000000000     


                             Geometry "geometry" -> ""
                             -------------------------

 Output coordinates in angstroms (scale by  1.889725989 to convert to a.u.)

  No.       Tag          Charge          X              Y              Z
 ---- ---------------- ---------- -------------- -------------- --------------
    1 O                    8.0000     0.00000000     0.00000000     0.11920704
    2 H                    1.0000     0.75933475     0.00000000    -0.47682817
    3 H                    1.0000    -0.75933475     0.00000000    -0.47682817

      Atomic Mass 
      ----------- 

      O                 15.994910
      H                  1.007825


 Effective nuclear repulsion energy (a.u.)       9.1194413826

            Nuclear Dipole moment (a.u.) 
            ----------------------------
        X                 Y               Z
 ---------------- ---------------- ----------------
     0.0000000000     0.0000000000     0.0000000000

      Symmetry information
      --------------------

 Group name             C2v       
 Group number             16
 Group order               4
 No. of unique centers     2

      Symmetry unique atoms

     1    2



                                Z-matrix (autoz)
                                -------- 

 Units are Angstrom for bonds and degrees for angles

      Type          Name      I     J     K     L     M      Value
      ----------- --------  ----- ----- ----- ----- ----- ----------
    1 Stretch                  1     2                       0.96532
    2 Stretch                  1     3                       0.96532
    3 Bend                     2     1     3               103.74015


            XYZ format geometry
            -------------------
     3
 geometry
 O                     0.00000000     0.00000000     0.11920704
 H                     0.75933475     0.00000000    -0.47682817
 H                    -0.75933475     0.00000000    -0.47682817

 ==============================================================================
                                internuclear distances
 ------------------------------------------------------------------------------
       center one      |      center two      | atomic units |  angstroms
 ------------------------------------------------------------------------------
    2 H                |   1 O                |     1.82419  |     0.96532
    3 H                |   1 O                |     1.82419  |     0.96532
 ------------------------------------------------------------------------------
                         number of included internuclear distances:          2
 ==============================================================================



 ==============================================================================
                                 internuclear angles
 ------------------------------------------------------------------------------
        center 1       |       center 2       |       center 3       |  degrees
 ------------------------------------------------------------------------------
    2 H                |   1 O                |   3 H                |   103.74
 ------------------------------------------------------------------------------
                            number of included internuclear angles:          1
 ==============================================================================



  library name resolved from: environment
  library file name is: </projects/academic/cyberwksp21/Software/nwchem_gcc/libraries.bse/>
  
                      Basis "ao basis" -> "" (spherical)
                      -----
  O (Oxygen)
  ----------
            Exponent  Coefficients 
       -------------- ---------------------------------------------------------
  1 S  5.48467166E+03  0.001831
  1 S  8.25234946E+02  0.013950
  1 S  1.88046958E+02  0.068445
  1 S  5.29645000E+01  0.232714
  1 S  1.68975704E+01  0.470193
  1 S  5.79963534E+00  0.358521

  2 S  1.55396163E+01 -0.110778
  2 S  3.59993359E+00 -0.148026
  2 S  1.01376175E+00  1.130767

  3 P  1.55396163E+01  0.070874
  3 P  3.59993359E+00  0.339753
  3 P  1.01376175E+00  0.727159

  4 S  2.70005823E-01  1.000000

  5 P  2.70005823E-01  1.000000

  6 D  8.00000000E-01  1.000000

  H (Hydrogen)
  ------------
            Exponent  Coefficients 
       -------------- ---------------------------------------------------------
  1 S  1.87311370E+01  0.033495
  1 S  2.82539437E+00  0.234727
  1 S  6.40121692E-01  0.813757

  2 S  1.61277759E-01  1.000000

  3 P  1.10000000E+00  1.000000



 Summary of "ao basis" -> "" (spherical)
 ------------------------------------------------------------------------------
       Tag                 Description            Shells   Functions and Types
 ---------------- ------------------------------  ------  ---------------------
 O                          6-31G**                  6       14   3s2p1d
 H                          6-31G**                  3        5   2s1p



                                 NWChem DFT Module
                                 -----------------


                          TDDFT H2O B3LYP/6-31G** QA TEST




 Summary of "ao basis" -> "ao basis" (spherical)
 ------------------------------------------------------------------------------
       Tag                 Description            Shells   Functions and Types
 ---------------- ------------------------------  ------  ---------------------
 O                          6-31G**                  6       14   3s2p1d
 H                          6-31G**                  3        5   2s1p


      Symmetry analysis of basis
      --------------------------

        a1         11
        a2          2
        b1          7
        b2          4

  Caching 1-el integrals 

            General Information
            -------------------
          SCF calculation type: DFT
          Wavefunction type:  closed shell.
          No. of atoms     :     3
          No. of electrons :    10
           Alpha electrons :     5
            Beta electrons :     5
          Charge           :     0
          Spin multiplicity:     1
          Use of symmetry is: off; symmetry adaption is: on 
          Maximum number of iterations:  50
          AO basis - number of functions:    24
                     number of shells:    12
          Convergence on energy requested:  1.00D-06
          Convergence on density requested:  1.00D-05
          Convergence on gradient requested:  5.00D-04

              XC Information
              --------------
                         B3LYP Method XC Potential
                     Hartree-Fock (Exact) Exchange  0.200          
                        Slater Exchange Functional  0.800 local    
                    Becke 1988 Exchange Functional  0.720 non-local
              Lee-Yang-Parr Correlation Functional  0.810          
                  VWN I RPA Correlation Functional  0.190 local    

             Grid Information
             ----------------
          Grid used for XC integration:  medium    
          Radial quadrature: Mura-Knowles        
          Angular quadrature: Lebedev. 
          Tag              B.-S. Rad. Rad. Pts. Rad. Cut. Ang. Pts.
          ---              ---------- --------- --------- ---------
          O                   0.60       49           5.0       434
          H                   0.35       45           6.0       434
          Grid pruning is: on 
          Number of quadrature shells:   139
          Spatial weights used:  Erf1

          Convergence Information
          -----------------------
          Convergence aids based upon iterative change in 
          total energy or number of iterations. 
          Levelshifting, if invoked, occurs when the 
          HOMO/LUMO gap drops below (HL_TOL):  1.00D-02
          DIIS, if invoked, will attempt to extrapolate 
          using up to (NFOCK): 10 stored Fock matrices.

                    Damping( 0%)  Levelshifting(0.5)       DIIS
                  --------------- ------------------- ---------------
          dE  on:    start            ASAP                start   
          dE off:    2 iters         50 iters            50 iters 


      Screening Tolerance Information
      -------------------------------
          Density screening/tol_rho:  1.00D-10
          AO Gaussian exp screening on grid/accAOfunc:  14
          CD Gaussian exp screening on grid/accCDfunc:  20
          XC Gaussian exp screening on grid/accXCfunc:  20
          Schwarz screening/accCoul:  1.00D-08


      Superposition of Atomic Density Guess
      -------------------------------------

 Sum of atomic energies:         -75.75081731

      Non-variational initial energy
      ------------------------------

 Total energy =     -75.904518
 1-e energy   =    -121.613649
 2-e energy   =      36.589690
 HOMO         =      -0.469134
 LUMO         =       0.113819


      Symmetry analysis of molecular orbitals - initial
      -------------------------------------------------

  Numbering of irreducible representations: 

     1 a1          2 a2          3 b1          4 b2      

  Orbital symmetries:

     1 a1          2 a1          3 b1          4 a1          5 b2      
     6 a1          7 b1          8 b1          9 a1         10 b2      
    11 a1         12 b1         13 a1         14 a2         15 a1      

  WARNING: movecs_in_org=atomic not equal to movecs_in=./tddft_h2o.movecs
   Time after variat. SCF:      1.1
   Time prior to 1st pass:      1.1
  avail0,avail1,avail0-avail1                  8867                 8867                    0
  avail0,avail1,avail0-avail1                  8867                 8867                    0
  avail0,avail1,avail0-avail1                  8867                 8867                    0
  avail0,avail1,avail0-avail1                  8867                 8867                    0

 #quartets = 3.081D+03 #integrals = 2.434D+04 #direct =  0.0% #cached =100.0%


 Integral file          = ./tddft_h2o.aoints.0
 Record size in doubles =  65536        No. of integs per rec  =  43688
 Max. records in memory =      3        Max. records in file   =    132
 No. of bits per label  =      8        No. of bits per value  =     64


File balance: exchanges=     0  moved=     0  time=   0.0

  avail0,avail1,avail0-avail1                  8867                 8867                    0
  avail0,avail1,avail0-avail1                  8867                 8867                    0
  avail0,avail1,avail0-avail1                  8867                 8867                    0
  avail0,avail1,avail0-avail1                  8867                 8867                    0

 Grid_pts file          = ./tddft_h2o.gridpts.0
 Record size in doubles =  12289        No. of grid_pts per rec  =   3070
 Max. records in memory =      6        Max. recs in file   =       709


           Memory utilization after 1st SCF pass: 
           Heap Space remaining (MW):       25.94            25942352
          Stack Space remaining (MW):       26.21            26214124

   convergence    iter        energy       DeltaE   RMS-Dens  Diis-err    time
 ---------------- ----- ----------------- --------- --------- ---------  ------
 d= 0,ls=0.0,diis     1    -76.3821893043 -8.55D+01  2.51D-02  3.55D-01     1.6
 d= 0,ls=0.0,diis     2    -76.3765802130  5.61D-03  1.39D-02  4.59D-01     1.6
 d= 0,ls=0.0,diis     3    -76.4173346750 -4.08D-02  1.74D-03  9.03D-03     1.6
 d= 0,ls=0.0,diis     4    -76.4181524560 -8.18D-04  1.26D-04  6.71D-05     1.7
 d= 0,ls=0.0,diis     5    -76.4181590298 -6.57D-06  8.53D-06  1.27D-07     1.7
 d= 0,ls=0.0,diis     6    -76.4181590424 -1.26D-08  1.05D-06  8.15D-10     1.7


         Total DFT energy =      -76.418159042422
      One electron energy =     -123.037475323463
           Coulomb energy =       46.859046391636
    Exchange-Corr. energy =       -9.359171493146
 Nuclear repulsion energy =        9.119441382552

 Numeric. integr. density =       10.000001123195

     Total iterative time =      0.6s



                  Occupations of the irreducible representations
                  ----------------------------------------------

                     irrep           alpha         beta
                     --------     --------     --------
                     a1                3.0          3.0
                     a2                0.0          0.0
                     b1                1.0          1.0
                     b2                1.0          1.0


                       DFT Final Molecular Orbital Analysis
                       ------------------------------------

 Vector    1  Occ=2.000000D+00  E=-1.913288D+01  Symmetry=a1
              MO Center= -1.0D-21,  4.0D-31,  1.2D-01, r^2= 1.5D-02
   Bfn.  Coefficient  Atom+Function         Bfn.  Coefficient  Atom+Function  
  ----- ------------  ---------------      ----- ------------  ---------------
     1      0.994916  1 O  s                  2      0.027862  1 O  s          

 Vector    2  Occ=2.000000D+00  E=-9.959839D-01  Symmetry=a1
              MO Center=  4.1D-18,  2.1D-28, -8.7D-02, r^2= 5.0D-01
   Bfn.  Coefficient  Atom+Function         Bfn.  Coefficient  Atom+Function  
  ----- ------------  ---------------      ----- ------------  ---------------
     2      0.468133  1 O  s                  6      0.416906  1 O  s          
     1     -0.210019  1 O  s                 15      0.151942  2 H  s          
    20      0.151942  3 H  s                  5     -0.119535  1 O  pz         
     9     -0.040831  1 O  pz         

 Vector    3  Occ=2.000000D+00  E=-5.137816D-01  Symmetry=b1
              MO Center= -1.1D-10,  1.2D-12, -1.1D-01, r^2= 7.9D-01
   Bfn.  Coefficient  Atom+Function         Bfn.  Coefficient  Atom+Function  
  ----- ------------  ---------------      ----- ------------  ---------------
     3      0.513659  1 O  px                 7      0.246994  1 O  px         
    15      0.244215  2 H  s                 20     -0.244215  3 H  s          
    16      0.157786  2 H  s                 21     -0.157786  3 H  s          
    13      0.028884  1 O  d  1       

 Vector    4  Occ=2.000000D+00  E=-3.693329D-01  Symmetry=a1
              MO Center=  2.0D-11,  3.2D-12,  1.9D-01, r^2= 6.9D-01
   Bfn.  Coefficient  Atom+Function         Bfn.  Coefficient  Atom+Function  
  ----- ------------  ---------------      ----- ------------  ---------------
     5      0.551505  1 O  pz                 9      0.369105  1 O  pz         
     6      0.358538  1 O  s                  2      0.184288  1 O  s          
    15     -0.145241  2 H  s                 20     -0.145241  3 H  s          
    16     -0.105464  2 H  s                 21     -0.105464  3 H  s          
     1     -0.083172  1 O  s                 12     -0.028923  1 O  d  0       

 Vector    5  Occ=2.000000D+00  E=-2.906710D-01  Symmetry=b2
              MO Center= -6.1D-13, -1.1D-11,  9.4D-02, r^2= 5.9D-01
   Bfn.  Coefficient  Atom+Function         Bfn.  Coefficient  Atom+Function  
  ----- ------------  ---------------      ----- ------------  ---------------
     4      0.643786  1 O  py                 8      0.494752  1 O  py         
    11     -0.029178  1 O  d -1       

 Vector    6  Occ=0.000000D+00  E= 6.822772D-02  Symmetry=a1
              MO Center=  5.6D-11, -8.7D-13, -6.0D-01, r^2= 2.4D+00
   Bfn.  Coefficient  Atom+Function         Bfn.  Coefficient  Atom+Function  
  ----- ------------  ---------------      ----- ------------  ---------------
     6      1.100769  1 O  s                 16     -0.942822  2 H  s          
    21     -0.942822  3 H  s                  9     -0.458742  1 O  pz         
     5     -0.277075  1 O  pz                 2      0.151746  1 O  s          
    15     -0.093165  2 H  s                 20     -0.093165  3 H  s          
     1     -0.089640  1 O  s          

 Vector    7  Occ=0.000000D+00  E= 1.519623D-01  Symmetry=b1
              MO Center=  6.1D-11, -1.1D-22, -5.7D-01, r^2= 2.5D+00
   Bfn.  Coefficient  Atom+Function         Bfn.  Coefficient  Atom+Function  
  ----- ------------  ---------------      ----- ------------  ---------------
    16      1.287016  2 H  s                 21     -1.287016  3 H  s          
     7     -0.758911  1 O  px                 3     -0.410643  1 O  px         
    15      0.103131  2 H  s                 20     -0.103131  3 H  s          

 Vector    8  Occ=0.000000D+00  E= 7.577283D-01  Symmetry=b1
              MO Center= -8.4D-10, -1.9D-12, -2.6D-01, r^2= 1.7D+00
   Bfn.  Coefficient  Atom+Function         Bfn.  Coefficient  Atom+Function  
  ----- ------------  ---------------      ----- ------------  ---------------
    16     -0.795127  2 H  s                 21      0.795127  3 H  s          
    15      0.770925  2 H  s                 20     -0.770925  3 H  s          
    13      0.265454  1 O  d  1               3     -0.202812  1 O  px         
     7     -0.166295  1 O  px                19     -0.099648  2 H  pz         
    24      0.099648  3 H  pz                17      0.049597  2 H  px         

 Vector    9  Occ=0.000000D+00  E= 8.095699D-01  Symmetry=a1
              MO Center=  7.3D-10,  3.3D-12, -3.0D-01, r^2= 1.5D+00
   Bfn.  Coefficient  Atom+Function         Bfn.  Coefficient  Atom+Function  
  ----- ------------  ---------------      ----- ------------  ---------------
    16      0.681268  2 H  s                 21      0.681268  3 H  s          
     6     -0.620622  1 O  s                 15     -0.608945  2 H  s          
    20     -0.608945  3 H  s                  5     -0.605892  1 O  pz         
     9      0.513472  1 O  pz                 2      0.239179  1 O  s          
    14     -0.215608  1 O  d  2              17     -0.159797  2 H  px         

 Vector   10  Occ=0.000000D+00  E= 8.924126D-01  Symmetry=b2
              MO Center=  1.9D-20, -5.9D-12,  1.1D-01, r^2= 1.1D+00
   Bfn.  Coefficient  Atom+Function         Bfn.  Coefficient  Atom+Function  
  ----- ------------  ---------------      ----- ------------  ---------------
     8     -1.037194  1 O  py                 4      0.959792  1 O  py         

 Vector   11  Occ=0.000000D+00  E= 9.318282D-01  Symmetry=a1
              MO Center= -7.2D-11,  5.6D-13,  2.3D-01, r^2= 1.2D+00
   Bfn.  Coefficient  Atom+Function         Bfn.  Coefficient  Atom+Function  
  ----- ------------  ---------------      ----- ------------  ---------------
     9      1.105450  1 O  pz                 5     -0.686527  1 O  pz         
    15      0.494356  2 H  s                 20      0.494356  3 H  s          
     2     -0.431876  1 O  s                 14      0.123369  1 O  d  2       
     6      0.086132  1 O  s                 16     -0.084092  2 H  s          
    21     -0.084092  3 H  s                  1      0.068373  1 O  s          

 Vector   12  Occ=0.000000D+00  E= 1.016694D+00  Symmetry=b1
              MO Center=  1.2D-10, -8.7D-22,  1.2D-01, r^2= 1.6D+00
   Bfn.  Coefficient  Atom+Function         Bfn.  Coefficient  Atom+Function  
  ----- ------------  ---------------      ----- ------------  ---------------
     7      1.795570  1 O  px                16     -0.963180  2 H  s          
    21      0.963180  3 H  s                  3     -0.864437  1 O  px         
    15     -0.152772  2 H  s                 20      0.152772  3 H  s          
    17      0.144896  2 H  px                22      0.144896  3 H  px         
    13      0.091003  1 O  d  1              19     -0.090210  2 H  pz         

 Vector   13  Occ=0.000000D+00  E= 1.334240D+00  Symmetry=a1
              MO Center=  3.3D-11,  4.2D-12, -1.7D-01, r^2= 1.2D+00
   Bfn.  Coefficient  Atom+Function         Bfn.  Coefficient  Atom+Function  
  ----- ------------  ---------------      ----- ------------  ---------------
     6      2.440558  1 O  s                  2     -1.448357  1 O  s          
    16     -0.620834  2 H  s                 21     -0.620834  3 H  s          
     9     -0.556354  1 O  pz                15     -0.237752  2 H  s          
    20     -0.237752  3 H  s                 14     -0.198757  1 O  d  2       
    19     -0.192328  2 H  pz                24     -0.192328  3 H  pz         

 Vector   14  Occ=0.000000D+00  E= 1.530653D+00  Symmetry=a2
              MO Center=  1.8D-12,  2.3D-13, -1.3D-01, r^2= 7.7D-01
   Bfn.  Coefficient  Atom+Function         Bfn.  Coefficient  Atom+Function  
  ----- ------------  ---------------      ----- ------------  ---------------
    10      0.679845  1 O  d -2              18      0.350902  2 H  py         
    23     -0.350902  3 H  py         

 Vector   15  Occ=0.000000D+00  E= 1.551065D+00  Symmetry=a1
              MO Center=  1.2D-12,  4.7D-13,  2.2D-02, r^2= 8.5D-01
   Bfn.  Coefficient  Atom+Function         Bfn.  Coefficient  Atom+Function  
  ----- ------------  ---------------      ----- ------------  ---------------
     6      1.057115  1 O  s                 12     -0.679313  1 O  d  0       
     9     -0.565198  1 O  pz                 2     -0.555875  1 O  s          
    15     -0.275493  2 H  s                 20     -0.275493  3 H  s          
    16     -0.224280  2 H  s                 21     -0.224280  3 H  s          
    19      0.208544  2 H  pz                24      0.208544  3 H  pz         

 Vector   16  Occ=0.000000D+00  E= 1.644936D+00  Symmetry=b2
              MO Center= -2.2D-12,  1.5D-12,  2.1D-02, r^2= 7.6D-01
   Bfn.  Coefficient  Atom+Function         Bfn.  Coefficient  Atom+Function  
  ----- ------------  ---------------      ----- ------------  ---------------
    11      0.783340  1 O  d -1              18     -0.300928  2 H  py         
    23     -0.300928  3 H  py                 8      0.205288  1 O  py         

 Vector   17  Occ=0.000000D+00  E= 2.256944D+00  Symmetry=a1
              MO Center= -9.5D-11, -2.7D-12, -8.4D-02, r^2= 8.7D-01
   Bfn.  Coefficient  Atom+Function         Bfn.  Coefficient  Atom+Function  
  ----- ------------  ---------------      ----- ------------  ---------------
     6      1.111936  1 O  s                 14      0.916770  1 O  d  2       
     2     -0.664297  1 O  s                 15     -0.662497  2 H  s          
    20     -0.662497  3 H  s                  9     -0.633949  1 O  pz         
    12      0.195220  1 O  d  0               5      0.180180  1 O  pz         
    17     -0.141007  2 H  px                22      0.141007  3 H  px         

 Vector   18  Occ=0.000000D+00  E= 2.269048D+00  Symmetry=b1
              MO Center=  1.2D-10, -1.7D-12, -4.2D-01, r^2= 1.0D+00
   Bfn.  Coefficient  Atom+Function         Bfn.  Coefficient  Atom+Function  
  ----- ------------  ---------------      ----- ------------  ---------------
    19      0.582302  2 H  pz                24     -0.582302  3 H  pz         
     7     -0.479105  1 O  px                17      0.479895  2 H  px         
    22      0.479895  3 H  px                13      0.144881  1 O  d  1       
    15      0.104424  2 H  s                 20     -0.104424  3 H  s          
    16      0.102932  2 H  s                 21     -0.102932  3 H  s          

 Vector   19  Occ=0.000000D+00  E= 2.451263D+00  Symmetry=b1
              MO Center= -3.8D-11, -3.7D-12, -1.7D-01, r^2= 9.8D-01
   Bfn.  Coefficient  Atom+Function         Bfn.  Coefficient  Atom+Function  
  ----- ------------  ---------------      ----- ------------  ---------------
    13      0.797812  1 O  d  1              15     -0.538094  2 H  s          
    20      0.538094  3 H  s                  7      0.482042  1 O  px         
     3     -0.340820  1 O  px                17     -0.331853  2 H  px         
    22     -0.331853  3 H  px                19      0.233444  2 H  pz         
    24     -0.233444  3 H  pz                16      0.202062  2 H  s          

 Vector   20  Occ=0.000000D+00  E= 2.642001D+00  Symmetry=a2
              MO Center= -2.1D-10,  5.3D-12, -2.1D-01, r^2= 9.8D-01
   Bfn.  Coefficient  Atom+Function         Bfn.  Coefficient  Atom+Function  
  ----- ------------  ---------------      ----- ------------  ---------------
    10      0.880745  1 O  d -2              18     -0.708918  2 H  py         
    23      0.708918  3 H  py         

 Vector   21  Occ=0.000000D+00  E= 2.667690D+00  Symmetry=b2
              MO Center=  2.1D-10,  7.0D-12, -3.0D-01, r^2= 1.0D+00
   Bfn.  Coefficient  Atom+Function         Bfn.  Coefficient  Atom+Function  
  ----- ------------  ---------------      ----- ------------  ---------------
    18      0.762838  2 H  py                23      0.762838  3 H  py         
    11      0.736825  1 O  d -1               8     -0.417519  1 O  py         

 Vector   22  Occ=0.000000D+00  E= 3.029695D+00  Symmetry=a1
              MO Center=  5.2D-11, -9.7D-13, -2.2D-01, r^2= 1.0D+00
   Bfn.  Coefficient  Atom+Function         Bfn.  Coefficient  Atom+Function  
  ----- ------------  ---------------      ----- ------------  ---------------
    12      0.892639  1 O  d  0              19      0.677489  2 H  pz         
    24      0.677489  3 H  pz                 9     -0.474847  1 O  pz         
    17      0.452027  2 H  px                22     -0.452027  3 H  px         
    14     -0.420662  1 O  d  2               6      0.266734  1 O  s          
     2     -0.163928  1 O  s                 15     -0.086935  2 H  s          

 Vector   23  Occ=0.000000D+00  E= 3.346830D+00  Symmetry=a1
              MO Center= -2.3D-10,  1.0D-12, -3.4D-01, r^2= 1.1D+00
   Bfn.  Coefficient  Atom+Function         Bfn.  Coefficient  Atom+Function  
  ----- ------------  ---------------      ----- ------------  ---------------
     6      1.941883  1 O  s                 15     -0.959024  2 H  s          
    20     -0.959024  3 H  s                 17      0.872121  2 H  px         
    22     -0.872121  3 H  px                 9     -0.861771  1 O  pz         
    14      0.789181  1 O  d  2              19     -0.578883  2 H  pz         
    24     -0.578883  3 H  pz                 5     -0.559237  1 O  pz         

 Vector   24  Occ=0.000000D+00  E= 3.532723D+00  Symmetry=b1
              MO Center=  2.0D-10,  5.0D-13, -9.9D-02, r^2= 1.2D+00
   Bfn.  Coefficient  Atom+Function         Bfn.  Coefficient  Atom+Function  
  ----- ------------  ---------------      ----- ------------  ---------------
    13      1.483521  1 O  d  1               7      1.341975  1 O  px         
    15     -1.186427  2 H  s                 20      1.186427  3 H  s          
    17      0.806698  2 H  px                22      0.806698  3 H  px         
    19     -0.699958  2 H  pz                24      0.699958  3 H  pz         
     3      0.692415  1 O  px                16     -0.537007  2 H  s          


 center of mass
 --------------
 x =   0.00000000 y =   0.00000000 z =   0.09921406

 moments of inertia (a.u.)
 ------------------
           2.270969023714           0.000000000000           0.000000000000
           0.000000000000           6.421267634361           0.000000000000
           0.000000000000           0.000000000000           4.150298610647

     Multipole analysis of the density
     ---------------------------------

     L   x y z        total         alpha         beta         nuclear
     -   - - -        -----         -----         ----         -------
     0   0 0 0     -0.000000     -5.000000     -5.000000     10.000000

     1   1 0 0      0.000000      0.000000      0.000000      0.000000
     1   0 1 0      0.000000      0.000000      0.000000      0.000000
     1   0 0 1     -0.802272     -0.401136     -0.401136      0.000000

     2   2 0 0     -3.176299     -3.647187     -3.647187      4.118075
     2   1 1 0      0.000000      0.000000      0.000000      0.000000
     2   1 0 1     -0.000000     -0.000000     -0.000000      0.000000
     2   0 2 0     -5.297956     -2.648978     -2.648978      0.000000
     2   0 1 1     -0.000000     -0.000000     -0.000000      0.000000
     2   0 0 2     -4.417685     -3.223762     -3.223762      2.029839


 Parallel integral file used       5 records with       0 large values

                                NWChem TDDFT Module
                                -------------------


                          TDDFT H2O B3LYP/6-31G** QA TEST


            General Information
            -------------------
           No. of orbitals :      48
            Alpha orbitals :      24
             Beta orbitals :      24
        Alpha frozen cores :       0
         Beta frozen cores :       0
     Alpha frozen virtuals :       0
      Beta frozen virtuals :       0
         Spin multiplicity :       1
    Number of AO functions :      24
        Use of symmetry is : off
      Symmetry adaption is : on 
         Schwarz screening :  0.10D-07

              XC Information
              --------------
                  B3LYP Method XC Potential
              Hartree-Fock (Exact) Exchange   0.20          
                 Slater Exchange Functional   0.80 local    
             Becke 1988 Exchange Functional   0.72 non-local
       Lee-Yang-Parr Correlation Functional   0.81          
           VWN I RPA Correlation Functional   0.19 local    

             TDDFT Information
             -----------------
          Calculation type : TDDFT             
         Wavefunction type : Restricted singlets & triplets
          No. of electrons :      10
           Alpha electrons :       5
            Beta electrons :       5
              No. of roots :      10
          Max subspacesize :    6000
            Max iterations :     100
               Target root :       1
           Target symmetry : none
      Symmetry restriction : off
                 Algorithm : Optimal
        Davidson threshold :  0.10D-03

            Memory Information
            ------------------
          Available GA space size is         262143424 doubles
          Available MA space size is          52427100 doubles
          Length of a trial vector is           95
          Algorithm : Incore multiple tensor contraction
          Estimated peak GA usage is           2330284 doubles
          Estimated peak MA usage is             71000 doubles

   10 smallest eigenvalue differences (eV) 
--------------------------------------------------------
  No. Spin  Occ  Vir  Irrep   E(Occ)    E(Vir)   E(Diff)
--------------------------------------------------------
    1    1    5    6 b2       -0.291     0.068     9.766
    2    1    4    6 a1       -0.369     0.068    11.907
    3    1    5    7 a2       -0.291     0.152    12.045
    4    1    4    7 b1       -0.369     0.152    14.185
    5    1    3    6 b1       -0.514     0.068    15.837
    6    1    3    7 a1       -0.514     0.152    18.116
    7    1    5    8 a2       -0.291     0.758    28.528
    8    1    2    6 a1       -0.996     0.068    28.959
    9    1    5    9 b2       -0.291     0.810    29.939
   10    1    4    8 b1       -0.369     0.758    30.669
--------------------------------------------------------

  Entering Davidson iterations
  Restricted singlet excited states

  Iter   NTrls   NConv    DeltaV     DeltaE      Time   
  ----  ------  ------  ---------  ---------  --------- 
    1     10       0     0.43E+00   0.10+100        0.3
    2     30       0     0.51E-01   0.54E-01        0.5
    3     50       1     0.79E-02   0.74E-03        0.5
    4     68       6     0.10E-02   0.76E-05        0.4
    5     76       9     0.14E-03   0.16E-06        0.3
    6     78      10     0.80E-04   0.19E-08        0.2
  ----  ------  ------  ---------  ---------  --------- 
  Convergence criterion met

  Ground state a1        -76.418159042422 a.u.

  ----------------------------------------------------------------------------
  Root   1 singlet a1             0.295732747 a.u.                8.0473 eV 
  ----------------------------------------------------------------------------
     Transition Moments    X  0.00000   Y -0.28366   Z  0.00000
     Transition Moments   XX  0.00000  XY -0.00000  XZ -0.00000
     Transition Moments   YY -0.00000  YZ  0.07381  ZZ  0.00000
     Dipole Oscillator Strength                    0.0158639128
     Electric Quadrupole                           0.0000000008
     Magnetic Dipole                               0.0000001188
     Total Oscillator Strength                     0.0158640323

     Occ.    5  b2  ---  Virt.    6  a1  -1.00002 X
  ----------------------------------------------------------------------------
  Root   2 singlet b2             0.368545121 a.u.               10.0286 eV 
  ----------------------------------------------------------------------------
     Transition Moments    X  0.00000   Y -0.00000   Z  0.00000
     Transition Moments   XX  0.00000  XY -0.24938  XZ -0.00000
     Transition Moments   YY -0.00000  YZ  0.00000  ZZ  0.00000
     Dipole Oscillator Strength                    0.0000000000
     Electric Quadrupole                           0.0000000166
     Magnetic Dipole                               0.0000003353
     Total Oscillator Strength                     0.0000003519

     Occ.    5  b2  ---  Virt.    7  b1   0.99936 X
  ----------------------------------------------------------------------------
  Root   3 singlet b2             0.387240917 a.u.               10.5374 eV 
  ----------------------------------------------------------------------------
     Transition Moments    X  0.00000   Y -0.00000   Z -0.59784
     Transition Moments   XX  0.58204  XY -0.00000  XZ -0.00000
     Transition Moments   YY  0.08898  YZ  0.00000  ZZ  0.42190
     Dipole Oscillator Strength                    0.0922714036
     Electric Quadrupole                           0.0000000196
     Magnetic Dipole                               0.0000000000
     Total Oscillator Strength                     0.0922714232

     Occ.    3  b1  ---  Virt.    7  b1   0.11649 X
     Occ.    4  a1  ---  Virt.    6  a1  -0.99271 X
  ----------------------------------------------------------------------------
  Root   4 singlet b2             0.466067700 a.u.               12.6824 eV 
  ----------------------------------------------------------------------------
     Transition Moments    X -0.47147   Y  0.00000   Z  0.00000
     Transition Moments   XX -0.00000  XY  0.00000  XZ  0.57267
     Transition Moments   YY -0.00000  YZ -0.00000  ZZ -0.00000
     Dipole Oscillator Strength                    0.0690672222
     Electric Quadrupole                           0.0000001768
     Magnetic Dipole                               0.0000005853
     Total Oscillator Strength                     0.0690679843

     Occ.    3  b1  ---  Virt.    6  a1   0.18266 X
     Occ.    4  a1  ---  Virt.    7  b1  -0.98220 X
  ----------------------------------------------------------------------------
  Root   5 singlet b2             0.534631184 a.u.               14.5481 eV 
  ----------------------------------------------------------------------------
     Transition Moments    X -1.04531   Y  0.00000   Z -0.00000
     Transition Moments   XX  0.00000  XY  0.00000  XZ  0.93836
     Transition Moments   YY  0.00000  YZ -0.00000  ZZ  0.00000
     Dipole Oscillator Strength                    0.3894511770
     Electric Quadrupole                           0.0000007165
     Magnetic Dipole                               0.0000000232
     Total Oscillator Strength                     0.3894519167

     Occ.    3  b1  ---  Virt.    6  a1  -0.98273 X
     Occ.    4  a1  ---  Virt.    7  b1  -0.18191 X
  ----------------------------------------------------------------------------
  Root   6 singlet b2             0.652360298 a.u.               17.7516 eV 
  ----------------------------------------------------------------------------
     Transition Moments    X -0.00000   Y -0.00000   Z -0.67883
     Transition Moments   XX  1.92653  XY  0.00000  XZ  0.00000
     Transition Moments   YY  0.09704  YZ  0.00000  ZZ  0.59330
     Dipole Oscillator Strength                    0.2004074870
     Electric Quadrupole                           0.0000013234
     Magnetic Dipole                               0.0000000000
     Total Oscillator Strength                     0.2004088104

     Occ.    2  a1  ---  Virt.    6  a1  -0.07562 X
     Occ.    3  b1  ---  Virt.    7  b1  -0.97870 X
     Occ.    4  a1  ---  Virt.    6  a1  -0.10942 X
     Occ.    4  a1  ---  Virt.    9  a1   0.07598 X
     Occ.    4  a1  ---  Virt.   11  a1   0.07086 X
     Occ.    5  b2  ---  Virt.   10  b2  -0.12814 X
  ----------------------------------------------------------------------------
  Root   7 singlet b2             0.961792675 a.u.               26.1717 eV 
  ----------------------------------------------------------------------------
     Transition Moments    X  0.00000   Y  0.00000   Z  0.00000
     Transition Moments   XX  0.00000  XY -0.41955  XZ -0.00000
     Transition Moments   YY -0.00000  YZ -0.00000  ZZ  0.00000
     Dipole Oscillator Strength                    0.0000000000
     Electric Quadrupole                           0.0000008340
     Magnetic Dipole                               0.0000004705
     Total Oscillator Strength                     0.0000013045

     Occ.    5  b2  ---  Virt.    8  b1  -0.99958 X
  ----------------------------------------------------------------------------
  Root   8 singlet b2             1.015700630 a.u.               27.6386 eV 
  ----------------------------------------------------------------------------
     Transition Moments    X -0.00000   Y  0.34826   Z  0.00000
     Transition Moments   XX -0.00000  XY  0.00000  XZ -0.00000
     Transition Moments   YY  0.00000  YZ  0.27349  ZZ -0.00000
     Dipole Oscillator Strength                    0.0821245285
     Electric Quadrupole                           0.0000004174
     Magnetic Dipole                               0.0000003213
     Total Oscillator Strength                     0.0821252671

     Occ.    5  b2  ---  Virt.    9  a1  -0.97902 X
     Occ.    5  b2  ---  Virt.   11  a1  -0.19726 X
  ----------------------------------------------------------------------------
  Root   9 singlet b2             1.019936422 a.u.               27.7539 eV 
  ----------------------------------------------------------------------------
     Transition Moments    X -0.00000   Y -0.00000   Z  0.21866
     Transition Moments   XX -0.78962  XY  0.00000  XZ -0.00000
     Transition Moments   YY  0.17803  YZ -0.00000  ZZ -0.48795
     Dipole Oscillator Strength                    0.0325099625
     Electric Quadrupole                           0.0000013851
     Magnetic Dipole                               0.0000000000
     Total Oscillator Strength                     0.0325113476

     Occ.    2  a1  ---  Virt.    6  a1  -0.94778 X
     Occ.    4  a1  ---  Virt.    9  a1  -0.12986 X
     Occ.    5  b2  ---  Virt.   10  b2   0.28427 X
  ----------------------------------------------------------------------------
  Root  10 singlet b2             1.074208231 a.u.               29.2307 eV 
  ----------------------------------------------------------------------------
     Transition Moments    X  0.45153   Y  0.00000   Z -0.00000
     Transition Moments   XX -0.00000  XY  0.00000  XZ -0.10364
     Transition Moments   YY  0.00000  YZ  0.00000  ZZ  0.00000
     Dipole Oscillator Strength                    0.1460055016
     Electric Quadrupole                           0.0000000709
     Magnetic Dipole                               0.0000022676
     Total Oscillator Strength                     0.1460078400

     Occ.    2  a1  ---  Virt.    7  b1  -0.54487 X
     Occ.    3  b1  ---  Virt.    9  a1  -0.16937 X
     Occ.    3  b1  ---  Virt.   11  a1   0.05280 X
     Occ.    4  a1  ---  Virt.    8  b1   0.81825 X

              Target root =      1
          Target symmetry = none
      Ground state energy =    -76.418159042422
        Excitation energy =      0.295732747363
     Excited state energy =    -76.122426295059

  stored tddft:energy   -76.122426295058588     

   10 smallest eigenvalue differences (eV) 
--------------------------------------------------------
  No. Spin  Occ  Vir  Irrep   E(Occ)    E(Vir)   E(Diff)
--------------------------------------------------------
    1    1    5    6 b2       -0.291     0.068     9.766
    2    1    4    6 a1       -0.369     0.068    11.907
    3    1    5    7 a2       -0.291     0.152    12.045
    4    1    4    7 b1       -0.369     0.152    14.185
    5    1    3    6 b1       -0.514     0.068    15.837
    6    1    3    7 a1       -0.514     0.152    18.116
    7    1    5    8 a2       -0.291     0.758    28.528
    8    1    2    6 a1       -0.996     0.068    28.959
    9    1    5    9 b2       -0.291     0.810    29.939
   10    1    4    8 b1       -0.369     0.758    30.669
--------------------------------------------------------

  Entering Davidson iterations
  Restricted triplet excited states

  Iter   NTrls   NConv    DeltaV     DeltaE      Time   
  ----  ------  ------  ---------  ---------  --------- 
    1     10       0     0.13E+00   0.10+100        0.3
    2     30       0     0.67E-01   0.16E-01        0.5
    3     50       1     0.59E-01   0.56E-02        0.5
    4     68       5     0.55E-02   0.79E-03        0.4
    5     78       7     0.36E-03   0.28E-05        0.3
    6     84      10     0.40E-04   0.51E-08        0.2
  ----  ------  ------  ---------  ---------  --------- 
  Convergence criterion met

  Ground state a1        -76.418159042422 a.u.

  ----------------------------------------------------------------------------
  Root   1 triplet a1             0.266945513 a.u.                7.2640 eV 
  ----------------------------------------------------------------------------
     Transition Moments                    Spin forbidden
     Oscillator Strength                   Spin forbidden

     Occ.    5  b2  ---  Virt.    6  a1   0.99901 X
  ----------------------------------------------------------------------------
  Root   2 triplet b2             0.343003661 a.u.                9.3336 eV 
  ----------------------------------------------------------------------------
     Transition Moments                    Spin forbidden
     Oscillator Strength                   Spin forbidden

     Occ.    3  b1  ---  Virt.    7  b1  -0.07855 X
     Occ.    4  a1  ---  Virt.    6  a1  -0.99532 X
     Occ.    4  a1  ---  Virt.    9  a1  -0.05629 X
  ----------------------------------------------------------------------------
  Root   3 triplet b2             0.347552443 a.u.                9.4574 eV 
  ----------------------------------------------------------------------------
     Transition Moments                    Spin forbidden
     Oscillator Strength                   Spin forbidden

     Occ.    5  b2  ---  Virt.    7  b1  -0.99830 X
  ----------------------------------------------------------------------------
  Root   4 triplet b2             0.414825337 a.u.               11.2880 eV 
  ----------------------------------------------------------------------------
     Transition Moments                    Spin forbidden
     Oscillator Strength                   Spin forbidden

     Occ.    3  b1  ---  Virt.    6  a1   0.25458 X
     Occ.    4  a1  ---  Virt.    7  b1   0.96422 X
     Occ.    4  a1  ---  Virt.    8  b1   0.06962 X
  ----------------------------------------------------------------------------
  Root   5 triplet b2             0.481298566 a.u.               13.0968 eV 
  ----------------------------------------------------------------------------
     Transition Moments                    Spin forbidden
     Oscillator Strength                   Spin forbidden

     Occ.    3  b1  ---  Virt.    6  a1   0.96406 X
     Occ.    3  b1  ---  Virt.    9  a1   0.05794 X
     Occ.    4  a1  ---  Virt.    7  b1  -0.25606 X
  ----------------------------------------------------------------------------
  Root   6 triplet b2             0.541733951 a.u.               14.7413 eV 
  ----------------------------------------------------------------------------
     Transition Moments                    Spin forbidden
     Oscillator Strength                   Spin forbidden

     Occ.    2  a1  ---  Virt.    6  a1   0.06321 X
     Occ.    3  b1  ---  Virt.    7  b1  -0.99031 X
     Occ.    3  b1  ---  Virt.    8  b1  -0.07817 X
     Occ.    3  b1  ---  Virt.   12  b1  -0.05864 X
     Occ.    4  a1  ---  Virt.    6  a1   0.08258 X
  ----------------------------------------------------------------------------
  Root   7 triplet b2             0.943063305 a.u.               25.6621 eV 
  ----------------------------------------------------------------------------
     Transition Moments                    Spin forbidden
     Oscillator Strength                   Spin forbidden

     Occ.    2  a1  ---  Virt.    6  a1   0.85230 X
     Occ.    2  a1  ---  Virt.    9  a1   0.07171 X
     Occ.    3  b1  ---  Virt.    7  b1   0.08685 X
     Occ.    3  b1  ---  Virt.    8  b1  -0.07130 X
     Occ.    3  b1  ---  Virt.   12  b1  -0.05949 X
     Occ.    4  a1  ---  Virt.    9  a1  -0.23725 X
     Occ.    4  a1  ---  Virt.   11  a1  -0.09838 X
     Occ.    5  b2  ---  Virt.   10  b2   0.43009 X
  ----------------------------------------------------------------------------
  Root   8 triplet b2             0.948809816 a.u.               25.8184 eV 
  ----------------------------------------------------------------------------
     Transition Moments                    Spin forbidden
     Oscillator Strength                   Spin forbidden

     Occ.    5  b2  ---  Virt.    8  b1   0.99853 X
  ----------------------------------------------------------------------------
  Root   9 triplet b2             0.976581034 a.u.               26.5741 eV 
  ----------------------------------------------------------------------------
     Transition Moments                    Spin forbidden
     Oscillator Strength                   Spin forbidden

     Occ.    4  a1  ---  Virt.   10  b2  -0.11459 X
     Occ.    5  b2  ---  Virt.    9  a1   0.98264 X
     Occ.    5  b2  ---  Virt.   11  a1   0.13596 X
  ----------------------------------------------------------------------------
  Root  10 triplet b2             0.997534495 a.u.               27.1443 eV 
  ----------------------------------------------------------------------------
     Transition Moments                    Spin forbidden
     Oscillator Strength                   Spin forbidden

     Occ.    2  a1  ---  Virt.    6  a1  -0.47207 X
     Occ.    4  a1  ---  Virt.    9  a1  -0.07720 X
     Occ.    4  a1  ---  Virt.   11  a1  -0.13058 X
     Occ.    5  b2  ---  Virt.   10  b2   0.86773 X

              Target root =      1
          Target symmetry = none
      Ground state energy =    -76.418159042422
        Excitation energy =      0.266945513342
     Excited state energy =    -76.151213529080

  stored tddft:energy   -76.151213529079641     

 Task  times  cpu:        5.6s     wall:        5.6s


                                NWChem Input Module
                                -------------------


 Summary of allocated global arrays
-----------------------------------
  No active global arrays


MA_summarize_allocated_blocks: starting scan ...
MA_summarize_allocated_blocks: scan completed: 0 heap blocks, 0 stack blocks
MA usage statistics:

	allocation statistics:
					      heap	     stack
					      ----	     -----
	current number of blocks	         0	         0
	maximum number of blocks	        22	        60
	current total bytes		         0	         0
	maximum total bytes		   2176344	  22510856
	maximum total K-bytes		      2177	     22511
	maximum total M-bytes		         3	        23


                                     CITATION
                                     --------
                Please cite the following reference when publishing
                           results obtained with NWChem:

          E. Apra, E. J. Bylaska, W. A. de Jong, N. Govind, K. Kowalski,
       T. P. Straatsma, M. Valiev, H. J. J. van Dam, Y. Alexeev, J. Anchell,
       V. Anisimov, F. W. Aquino, R. Atta-Fynn, J. Autschbach, N. P. Bauman,
     J. C. Becca, D. E. Bernholdt, K. Bhaskaran-Nair, S. Bogatko, P. Borowski,
         J. Boschen, J. Brabec, A. Bruner, E. Cauet, Y. Chen, G. N. Chuev,
      C. J. Cramer, J. Daily, M. J. O. Deegan, T. H. Dunning Jr., M. Dupuis,
   K. G. Dyall, G. I. Fann, S. A. Fischer, A. Fonari, H. Fruchtl, L. Gagliardi,
      J. Garza, N. Gawande, S. Ghosh, K. Glaesemann, A. W. Gotz, J. Hammond,
       V. Helms, E. D. Hermes, K. Hirao, S. Hirata, M. Jacquelin, L. Jensen,
   B. G. Johnson, H. Jonsson, R. A. Kendall, M. Klemm, R. Kobayashi, V. Konkov,
      S. Krishnamoorthy, M. Krishnan, Z. Lin, R. D. Lins, R. J. Littlefield,
      A. J. Logsdail, K. Lopata, W. Ma, A. V. Marenich, J. Martin del Campo,
   D. Mejia-Rodriguez, J. E. Moore, J. M. Mullin, T. Nakajima, D. R. Nascimento,
    J. A. Nichols, P. J. Nichols, J. Nieplocha, A. Otero-de-la-Roza, B. Palmer,
    A. Panyala, T. Pirojsirikul, B. Peng, R. Peverati, J. Pittner, L. Pollack,
   R. M. Richard, P. Sadayappan, G. C. Schatz, W. A. Shelton, D. W. Silverstein,
   D. M. A. Smith, T. A. Soares, D. Song, M. Swart, H. L. Taylor, G. S. Thomas,
            V. Tipparaju, D. G. Truhlar, K. Tsemekhman, T. Van Voorhis,
      A. Vazquez-Mayagoitia, P. Verma, O. Villa, A. Vishnu, K. D. Vogiatzis,
        D. Wang, J. H. Weare, M. J. Williamson, T. L. Windus, K. Wolinski,
        A. T. Wong, Q. Wu, C. Yang, Q. Yu, M. Zacharias, Z. Zhang, Y. Zhao,
                                and R. J. Harrison
                        "NWChem: Past, present, and future
                         J. Chem. Phys. 152, 184102 (2020)
                               doi:10.1063/5.0004997

                                      AUTHORS
                                      -------
  E. Apra, E. J. Bylaska, N. Govind, K. Kowalski, M. Valiev, D. Mejia-Rodriguez,
       A. Kunitsa, N. P. Bauman, A. Panyala, W. A. de Jong, T. P. Straatsma,
   H. J. J. van Dam, D. Wang, T. L. Windus, J. Hammond, J. Autschbach, A. Woods,
    K. Bhaskaran-Nair, J. Brabec, K. Lopata, S. A. Fischer, S. Krishnamoorthy,
     M. Jacquelin, W. Ma, M. Klemm, O. Villa, Y. Chen, V. Anisimov, F. Aquino,
     S. Hirata, M. T. Hackler, E. Hermes, L. Jensen, J. E. Moore, J. C. Becca,
      V. Konjkov, T. Risthaus, M. Malagoli, A. Marenich, A. Otero-de-la-Roza,
        J. Mullin, P. Nichols, R. Peverati, J. Pittner, Y. Zhao, P.-D. Fan,
        A. Fonari, M. J. Williamson, R. J. Harrison, J. R. Rehr, M. Dupuis,
     D. Silverstein, D. M. A. Smith, J. Nieplocha, V. Tipparaju, M. Krishnan,
     B. E. Van Kuiken, A. Vazquez-Mayagoitia, M. Swart, Q. Wu, T. Van Voorhis,
     A. A. Auer, M. Nooijen, L. D. Crosby, E. Brown, G. Cisneros, G. I. Fann,
   H. Fruchtl, J. Garza, K. Hirao, R. A. Kendall, J. A. Nichols, K. Tsemekhman,
    K. Wolinski, J. Anchell, D. E. Bernholdt, P. Borowski, T. Clark, D. Clerc,
   H. Dachsel, M. J. O. Deegan, K. Dyall, D. Elwood, E. Glendening, M. Gutowski,
   A. C. Hess, J. Jaffe, B. G. Johnson, J. Ju, R. Kobayashi, R. Kutteh, Z. Lin,
   R. Littlefield, X. Long, B. Meng, T. Nakajima, S. Niu, L. Pollack, M. Rosing,
   K. Glaesemann, G. Sandrone, M. Stave, H. Taylor, G. Thomas, J. H. van Lenthe,
                               A. T. Wong, Z. Zhang.

 Total times  cpu:        8.1s     wall:        8.1s
