 argument  1 = box.inp
                                         
                                         


             Northwest Computational Chemistry Package (NWChem) 7.2.0
             --------------------------------------------------------


                    Environmental Molecular Sciences Laboratory
                       Pacific Northwest National Laboratory
                                Richland, WA 99352

                              Copyright (c) 1994-2022
                       Pacific Northwest National Laboratory
                            Battelle Memorial Institute

             NWChem is an open-source computational chemistry package
                        distributed under the terms of the
                      Educational Community License (ECL) 2.0
             A copy of the license is included with this distribution
                              in the LICENSE.TXT file

                                  ACKNOWLEDGMENT
                                  --------------

            This software and its documentation were developed at the
            EMSL at Pacific Northwest National Laboratory, a multiprogram
            national laboratory, operated for the U.S. Department of Energy
            by Battelle under Contract Number DE-AC05-76RL01830. Support
            for this work was provided by the Department of Energy Office
            of Biological and Environmental Research, Office of Basic
            Energy Sciences, and the Office of Advanced Scientific Computing.


           Job information
           ---------------

    hostname        = cpn-m23-24.compute.cbls.ccr.buffalo.edu
    program         = nwchem
    date            = Wed Jun 21 16:29:29 2023

    compiled        = Sat_Jun_03_00:13:02_2023
    source          = /home/conda/feedstock_root/build_artifacts/nwchem_1685742347738/work
    nwchem branch   = 7.2.0
    nwchem revision = a703444
    ga revision     = 5.8.0
    use scalapack   = T
    input           = box.inp
    prefix          = DBH+methanolbox.
    data base       = ./DBH+methanolbox.db
    status          = startup
    nproc           =       24
    time left       =     -1s



           Memory information
           ------------------

    heap     =   26214396 doubles =    200.0 Mbytes
    stack    =   26214401 doubles =    200.0 Mbytes
    global   =   52428800 doubles =    400.0 Mbytes (distinct from heap & stack)
    total    =  104857597 doubles =    800.0 Mbytes
    verify   = yes
    hardfail = no 


           Directory information
           ---------------------

  0 permanent = .
  0 scratch   = .




                                NWChem Input Module
                                -------------------


                   Prepare QM/MM calculation of DBH+methanolbox
                   --------------------------------------------
                                  Prepare Module
                                  --------------

 Force field                           amber


 Directories used for fragment and segment files

                                       /projects/academic/cyberwksp21/Software/nwchem_conda0/share/nwchem/data/amber_s/
                                       /projects/academic/cyberwksp21/Software/nwchem_conda0/share/nwchem/data/amber_q/
                                       /projects/academic/cyberwksp21/Software/nwchem_conda0/share/nwchem/data/amber_x/
                                       /projects/academic/cyberwksp21/Software/nwchem_conda0/share/nwchem/data/amber_u/
                                       ./

 Parameter files used to resolve force field parameters

                                       /projects/academic/cyberwksp21/Software/nwchem_conda0/share/nwchem/data/amber_s/amber.par
                                       /projects/academic/cyberwksp21/Software/nwchem_conda0/share/nwchem/data/amber_q/amber.par
                                       /projects/academic/cyberwksp21/Software/nwchem_conda0/share/nwchem/data/amber_x/amber.par
                                       /projects/academic/cyberwksp21/Software/nwchem_conda0/share/nwchem/data/amber_u/amber.par
                                       ./amber.par

 Deleted existing topology             DBH+methanolbox.top

 Deleted existing sequence             ./DBH+methanolbox.seq

 PDB geometry                          dbh.pdb


 Created sequence                      ./DBH+methanolbox.seq

 
 modify segment     1 set 0 quantum 
 Parameter file                        /projects/academic/cyberwksp21/Software/nwchem_conda0/share/nwchem/data/amber_s/amber.par
 Parameter file                        /projects/academic/cyberwksp21/Software/nwchem_conda0/share/nwchem/data/amber_q/amber.par
 Parameter file                        /projects/academic/cyberwksp21/Software/nwchem_conda0/share/nwchem/data/amber_x/amber.par
 Parameter file                        /projects/academic/cyberwksp21/Software/nwchem_conda0/share/nwchem/data/amber_u/amber.par
 
 Total charge                             -0.000000

 Created topology                      DBH+methanolbox.top

 Topology                              DBH+methanolbox.top

 Restart generation using command file directives

 PDB file                              dbh.pdb
 Number of missing coordinates                0
 Total number of atoms                       15


 Boxsize determined to                     0.408200    0.429800    0.419800


 Periodic boundary conditions on
 Solute centered in x-dimension
 Solute centered in y-dimension
 Solute centered in z-dimension

 Boxsize determined to                     0.330800    0.429800    0.345200


 Orientation solute

 Boxsize determined to                     0.392840    0.353502    0.459398

 Touch distance set to                     0.250000 nm
 Solvent coordinates from              meoh.rst


 Solvent file                          meoh.rst
 Number of solvent molecules                216
 Solvent box size                          2.355710    2.663574    2.474708

 Periodic boundary conditions on

 Solvated in box                           1.659398    1.659398    1.659398

 Number of solvent molecules                 67

 Box expanded with                         0.000000    0.000000    0.000000
                to                         1.659398    1.659398    1.659398


 Created restart                       DBH+methanolbox_md.rst


 Created restart                       DBH+methanolbox.rst

 Created pdb                           DBH+methanolbox.pdb


 Task  times  cpu:        0.0s     wall:        0.5s


                                NWChem Input Module
                                -------------------


 Summary of allocated global arrays
-----------------------------------
  No active global arrays


MA_summarize_allocated_blocks: starting scan ...
MA_summarize_allocated_blocks: scan completed: 0 heap blocks, 0 stack blocks
MA usage statistics:

	allocation statistics:
					      heap	     stack
					      ----	     -----
	current number of blocks	         0	         0
	maximum number of blocks	         7	        33
	current total bytes		         0	         0
	maximum total bytes		    100112	   2740584
	maximum total K-bytes		       101	      2741
	maximum total M-bytes		         1	         3


                                     CITATION
                                     --------
                Please cite the following reference when publishing
                           results obtained with NWChem:

          E. Apra, E. J. Bylaska, W. A. de Jong, N. Govind, K. Kowalski,
       T. P. Straatsma, M. Valiev, H. J. J. van Dam, Y. Alexeev, J. Anchell,
       V. Anisimov, F. W. Aquino, R. Atta-Fynn, J. Autschbach, N. P. Bauman,
     J. C. Becca, D. E. Bernholdt, K. Bhaskaran-Nair, S. Bogatko, P. Borowski,
         J. Boschen, J. Brabec, A. Bruner, E. Cauet, Y. Chen, G. N. Chuev,
      C. J. Cramer, J. Daily, M. J. O. Deegan, T. H. Dunning Jr., M. Dupuis,
   K. G. Dyall, G. I. Fann, S. A. Fischer, A. Fonari, H. Fruchtl, L. Gagliardi,
      J. Garza, N. Gawande, S. Ghosh, K. Glaesemann, A. W. Gotz, J. Hammond,
       V. Helms, E. D. Hermes, K. Hirao, S. Hirata, M. Jacquelin, L. Jensen,
   B. G. Johnson, H. Jonsson, R. A. Kendall, M. Klemm, R. Kobayashi, V. Konkov,
      S. Krishnamoorthy, M. Krishnan, Z. Lin, R. D. Lins, R. J. Littlefield,
      A. J. Logsdail, K. Lopata, W. Ma, A. V. Marenich, J. Martin del Campo,
   D. Mejia-Rodriguez, J. E. Moore, J. M. Mullin, T. Nakajima, D. R. Nascimento,
    J. A. Nichols, P. J. Nichols, J. Nieplocha, A. Otero-de-la-Roza, B. Palmer,
    A. Panyala, T. Pirojsirikul, B. Peng, R. Peverati, J. Pittner, L. Pollack,
   R. M. Richard, P. Sadayappan, G. C. Schatz, W. A. Shelton, D. W. Silverstein,
   D. M. A. Smith, T. A. Soares, D. Song, M. Swart, H. L. Taylor, G. S. Thomas,
            V. Tipparaju, D. G. Truhlar, K. Tsemekhman, T. Van Voorhis,
      A. Vazquez-Mayagoitia, P. Verma, O. Villa, A. Vishnu, K. D. Vogiatzis,
        D. Wang, J. H. Weare, M. J. Williamson, T. L. Windus, K. Wolinski,
        A. T. Wong, Q. Wu, C. Yang, Q. Yu, M. Zacharias, Z. Zhang, Y. Zhao,
                                and R. J. Harrison
                        "NWChem: Past, present, and future
                         J. Chem. Phys. 152, 184102 (2020)
                               doi:10.1063/5.0004997

                                      AUTHORS
                                      -------
  E. Apra, E. J. Bylaska, N. Govind, K. Kowalski, M. Valiev, D. Mejia-Rodriguez,
       A. Kunitsa, N. P. Bauman, A. Panyala, W. A. de Jong, T. P. Straatsma,
   H. J. J. van Dam, D. Wang, T. L. Windus, J. Hammond, J. Autschbach, A. Woods,
    K. Bhaskaran-Nair, J. Brabec, K. Lopata, S. A. Fischer, S. Krishnamoorthy,
     M. Jacquelin, W. Ma, M. Klemm, O. Villa, Y. Chen, V. Anisimov, F. Aquino,
     S. Hirata, M. T. Hackler, E. Hermes, L. Jensen, J. E. Moore, J. C. Becca,
      V. Konjkov, T. Risthaus, M. Malagoli, A. Marenich, A. Otero-de-la-Roza,
        J. Mullin, P. Nichols, R. Peverati, J. Pittner, Y. Zhao, P.-D. Fan,
        A. Fonari, M. J. Williamson, R. J. Harrison, J. R. Rehr, M. Dupuis,
     D. Silverstein, D. M. A. Smith, J. Nieplocha, V. Tipparaju, M. Krishnan,
     B. E. Van Kuiken, A. Vazquez-Mayagoitia, M. Swart, Q. Wu, T. Van Voorhis,
     A. A. Auer, M. Nooijen, L. D. Crosby, E. Brown, G. Cisneros, G. I. Fann,
   H. Fruchtl, J. Garza, K. Hirao, R. A. Kendall, J. A. Nichols, K. Tsemekhman,
    K. Wolinski, J. Anchell, D. E. Bernholdt, P. Borowski, T. Clark, D. Clerc,
   H. Dachsel, M. J. O. Deegan, K. Dyall, D. Elwood, E. Glendening, M. Gutowski,
   A. C. Hess, J. Jaffe, B. G. Johnson, J. Ju, R. Kobayashi, R. Kutteh, Z. Lin,
   R. Littlefield, X. Long, B. Meng, T. Nakajima, S. Niu, L. Pollack, M. Rosing,
   K. Glaesemann, G. Sandrone, M. Stave, H. Taylor, G. Thomas, J. H. van Lenthe,
                               A. T. Wong, Z. Zhang.

 Total times  cpu:        0.1s     wall:        1.4s
