 argument  1 = ethane.nw



============================== echo of input deck ==============================
echo
start ethane-excit

title "TDDFT on ethane"

memory 1000 mb

geometry
symmetry c1
C -0.5371  0.1483 -0.0004
C  0.9655  0.0799  0.0003
H -0.9004  1.0545 -0.5025
H -0.9797 -0.7117 -0.5198
H -0.9424  0.1567  1.0198
H  1.4100  0.9449  0.5095
H  1.3299 -0.8206  0.5119
H  1.3706  0.0614 -1.0198
end

basis
 C library 6-31G
 H library 6-31G
end

dft
 xc  becke88 1. lyp 1.   # BLYP functional
end

tddft
 nroots 10
end
task tddft energy
================================================================================


                                         
                                         


             Northwest Computational Chemistry Package (NWChem) 7.2.0
             --------------------------------------------------------


                    Environmental Molecular Sciences Laboratory
                       Pacific Northwest National Laboratory
                                Richland, WA 99352

                              Copyright (c) 1994-2022
                       Pacific Northwest National Laboratory
                            Battelle Memorial Institute

             NWChem is an open-source computational chemistry package
                        distributed under the terms of the
                      Educational Community License (ECL) 2.0
             A copy of the license is included with this distribution
                              in the LICENSE.TXT file

                                  ACKNOWLEDGMENT
                                  --------------

            This software and its documentation were developed at the
            EMSL at Pacific Northwest National Laboratory, a multiprogram
            national laboratory, operated for the U.S. Department of Energy
            by Battelle under Contract Number DE-AC05-76RL01830. Support
            for this work was provided by the Department of Energy Office
            of Biological and Environmental Research, Office of Basic
            Energy Sciences, and the Office of Advanced Scientific Computing.


           Job information
           ---------------

    hostname        = cpn-p27-15.compute.cbls.ccr.buffalo.edu
    program         = nwchem
    date            = Tue Jun 20 11:40:15 2023

    compiled        = Sat_Jun_03_00:13:02_2023
    source          = /home/conda/feedstock_root/build_artifacts/nwchem_1685742347738/work
    nwchem branch   = 7.2.0
    nwchem revision = a703444
    ga revision     = 5.8.0
    use scalapack   = T
    input           = ethane.nw
    prefix          = ethane-excit.
    data base       = ./ethane-excit.db
    status          = startup
    nproc           =       12
    time left       =     -1s



           Memory information
           ------------------

    heap     =   32767994 doubles =    250.0 Mbytes
    stack    =   32767999 doubles =    250.0 Mbytes
    global   =   65536000 doubles =    500.0 Mbytes (distinct from heap & stack)
    total    =  131071993 doubles =   1000.0 Mbytes
    verify   = yes
    hardfail = no 


           Directory information
           ---------------------

  0 permanent = .
  0 scratch   = .




                                NWChem Input Module
                                -------------------


                                  TDDFT on ethane
                                  ---------------

 Scaling coordinates for geometry "geometry" by  1.889725989
 (inverse scale =  0.529177249)

 Turning off AUTOSYM since
 SYMMETRY directive was detected!


          ------
          auto-z
          ------
  no constraints, skipping    0.0000000000000000     
  no constraints, skipping    0.0000000000000000     


                             Geometry "geometry" -> ""
                             -------------------------

 Output coordinates in angstroms (scale by  1.889725989 to convert to a.u.)

  No.       Tag          Charge          X              Y              Z
 ---- ---------------- ---------- -------------- -------------- --------------
    1 C                    6.0000    -0.75145556     0.03416667    -0.00031667
    2 C                    6.0000     0.75114444    -0.03423333     0.00038333
    3 H                    1.0000    -1.11475556     0.94036667    -0.50241667
    4 H                    1.0000    -1.19405556    -0.82583333    -0.51971667
    5 H                    1.0000    -1.15675556     0.04256667     1.01988333
    6 H                    1.0000     1.19564444     0.83076667     0.50958333
    7 H                    1.0000     1.11554444    -0.93473333     0.51198333
    8 H                    1.0000     1.15624444    -0.05273333    -1.01971667

      Atomic Mass 
      ----------- 

      C                 12.000000
      H                  1.007825


 Effective nuclear repulsion energy (a.u.)      42.3860510506

            Nuclear Dipole moment (a.u.) 
            ----------------------------
        X                 Y               Z
 ---------------- ---------------- ----------------
     0.0000000000     0.0000000000    -0.0000000000



                                Z-matrix (autoz)
                                -------- 

 Units are Angstrom for bonds and degrees for angles

      Type          Name      I     J     K     L     M      Value
      ----------- --------  ----- ----- ----- ----- ----- ----------
    1 Stretch                  1     2                       1.50416
    2 Stretch                  1     3                       1.09786
    3 Stretch                  1     4                       1.09785
    4 Stretch                  1     5                       1.09779
    5 Stretch                  2     6                       1.09777
    6 Stretch                  2     7                       1.09792
    7 Stretch                  2     8                       1.09775
    8 Bend                     1     2     6               111.64646
    9 Bend                     1     2     7               111.65839
   10 Bend                     1     2     8               111.65273
   11 Bend                     2     1     3               111.61225
   12 Bend                     2     1     4               111.55124
   13 Bend                     2     1     5               111.63727
   14 Bend                     3     1     4               107.26637
   15 Bend                     3     1     5               107.24938
   16 Bend                     4     1     5               107.26670
   17 Bend                     6     2     7               107.20229
   18 Bend                     6     2     8               107.15129
   19 Bend                     7     2     8               107.26008
   20 Torsion                  3     1     2     6          59.37997
   21 Torsion                  3     1     2     7         179.37693
   22 Torsion                  3     1     2     8         -60.54799
   23 Torsion                  4     1     2     6         179.36168
   24 Torsion                  4     1     2     7         -60.64137
   25 Torsion                  4     1     2     8          59.43371
   26 Torsion                  5     1     2     6         -60.63907
   27 Torsion                  5     1     2     7          59.35789
   28 Torsion                  5     1     2     8         179.43297


            XYZ format geometry
            -------------------
     8
 geometry
 C                    -0.75145556     0.03416667    -0.00031667
 C                     0.75114444    -0.03423333     0.00038333
 H                    -1.11475556     0.94036667    -0.50241667
 H                    -1.19405556    -0.82583333    -0.51971667
 H                    -1.15675556     0.04256667     1.01988333
 H                     1.19564444     0.83076667     0.50958333
 H                     1.11554444    -0.93473333     0.51198333
 H                     1.15624444    -0.05273333    -1.01971667

 ==============================================================================
                                internuclear distances
 ------------------------------------------------------------------------------
       center one      |      center two      | atomic units |  angstroms
 ------------------------------------------------------------------------------
    2 C                |   1 C                |     2.84244  |     1.50416
    3 H                |   1 C                |     2.07465  |     1.09786
    4 H                |   1 C                |     2.07463  |     1.09785
    5 H                |   1 C                |     2.07453  |     1.09779
    6 H                |   2 C                |     2.07448  |     1.09777
    7 H                |   2 C                |     2.07476  |     1.09792
    8 H                |   2 C                |     2.07444  |     1.09775
 ------------------------------------------------------------------------------
                         number of included internuclear distances:          7
 ==============================================================================



 ==============================================================================
                                 internuclear angles
 ------------------------------------------------------------------------------
        center 1       |       center 2       |       center 3       |  degrees
 ------------------------------------------------------------------------------
    2 C                |   1 C                |   3 H                |   111.61
    2 C                |   1 C                |   4 H                |   111.55
    2 C                |   1 C                |   5 H                |   111.64
    3 H                |   1 C                |   4 H                |   107.27
    3 H                |   1 C                |   5 H                |   107.25
    4 H                |   1 C                |   5 H                |   107.27
    1 C                |   2 C                |   6 H                |   111.65
    1 C                |   2 C                |   7 H                |   111.66
    1 C                |   2 C                |   8 H                |   111.65
    6 H                |   2 C                |   7 H                |   107.20
    6 H                |   2 C                |   8 H                |   107.15
    7 H                |   2 C                |   8 H                |   107.26
 ------------------------------------------------------------------------------
                            number of included internuclear angles:         12
 ==============================================================================



  library name resolved from: environment
  library file name is: </projects/academic/cyberwksp21/Software/nwchem_conda0/share/nwchem/libraries/>
  
                      Basis "ao basis" -> "" (cartesian)
                      -----
  C (Carbon)
  ----------
            Exponent  Coefficients 
       -------------- ---------------------------------------------------------
  1 S  3.04752490E+03  0.001835
  1 S  4.57369510E+02  0.014037
  1 S  1.03948690E+02  0.068843
  1 S  2.92101550E+01  0.232184
  1 S  9.28666300E+00  0.467941
  1 S  3.16392700E+00  0.362312

  2 S  7.86827240E+00 -0.119332
  2 S  1.88128850E+00 -0.160854
  2 S  5.44249300E-01  1.143456

  3 P  7.86827240E+00  0.068999
  3 P  1.88128850E+00  0.316424
  3 P  5.44249300E-01  0.744308

  4 S  1.68714400E-01  1.000000

  5 P  1.68714400E-01  1.000000

  H (Hydrogen)
  ------------
            Exponent  Coefficients 
       -------------- ---------------------------------------------------------
  1 S  1.87311370E+01  0.033495
  1 S  2.82539370E+00  0.234727
  1 S  6.40121700E-01  0.813757

  2 S  1.61277800E-01  1.000000



 Summary of "ao basis" -> "" (cartesian)
 ------------------------------------------------------------------------------
       Tag                 Description            Shells   Functions and Types
 ---------------- ------------------------------  ------  ---------------------
 C                           6-31G                   5        9   3s2p
 H                           6-31G                   2        2   2s



                                 NWChem DFT Module
                                 -----------------


                                  TDDFT on ethane




 Summary of "ao basis" -> "ao basis" (cartesian)
 ------------------------------------------------------------------------------
       Tag                 Description            Shells   Functions and Types
 ---------------- ------------------------------  ------  ---------------------
 C                           6-31G                   5        9   3s2p
 H                           6-31G                   2        2   2s


  Caching 1-el integrals 

            General Information
            -------------------
          SCF calculation type: DFT
          Wavefunction type:  closed shell.
          No. of atoms     :     8
          No. of electrons :    18
           Alpha electrons :     9
            Beta electrons :     9
          Charge           :     0
          Spin multiplicity:     1
          Use of symmetry is: off; symmetry adaption is: off
          Maximum number of iterations:  50
          AO basis - number of functions:    30
                     number of shells:    22
          Convergence on energy requested:  1.00D-06
          Convergence on density requested:  1.00D-05
          Convergence on gradient requested:  5.00D-04

              XC Information
              --------------
                    Becke 1988 Exchange Functional  1.000          
              Lee-Yang-Parr Correlation Functional  1.000          

             Grid Information
             ----------------
          Grid used for XC integration:  medium    
          Radial quadrature: Mura-Knowles        
          Angular quadrature: Lebedev. 
          Tag              B.-S. Rad. Rad. Pts. Rad. Cut. Ang. Pts.
          ---              ---------- --------- --------- ---------
          C                   0.70       49           7.0       434
          H                   0.35       45           8.0       434
          Grid pruning is: on 
          Number of quadrature shells:   368
          Spatial weights used:  Erf1

          Convergence Information
          -----------------------
          Convergence aids based upon iterative change in 
          total energy or number of iterations. 
          Levelshifting, if invoked, occurs when the 
          HOMO/LUMO gap drops below (HL_TOL):  1.00D-02
          DIIS, if invoked, will attempt to extrapolate 
          using up to (NFOCK): 10 stored Fock matrices.

                    Damping( 0%)  Levelshifting(0.5)       DIIS
                  --------------- ------------------- ---------------
          dE  on:    start            ASAP                start   
          dE off:    2 iters         50 iters            50 iters 


      Screening Tolerance Information
      -------------------------------
          Density screening/tol_rho:  1.00D-10
          AO Gaussian exp screening on grid/accAOfunc:  14
          CD Gaussian exp screening on grid/accCDfunc:  20
          XC Gaussian exp screening on grid/accXCfunc:  20
          Schwarz screening/accCoul:  1.00D-08


      Superposition of Atomic Density Guess
      -------------------------------------

 Sum of atomic energies:         -78.30990353

      Non-variational initial energy
      ------------------------------

 Total energy =     -79.673271
 1-e energy   =    -187.098469
 2-e energy   =      65.039147
 HOMO         =      -0.407234
 LUMO         =       0.146818

  WARNING: movecs_in_org=atomic not equal to movecs_in=./ethane-excit.movecs
   Time after variat. SCF:      1.4
   Time prior to 1st pass:      1.4

 Grid_pts file          = ./ethane-excit.gridpts.00
 Record size in doubles =  12289        No. of grid_pts per rec  =   3070
 Max. records in memory =      6        Max. recs in file   =  84437568


           Memory utilization after 1st SCF pass: 
           Heap Space remaining (MW):        0.00                  28
          Stack Space remaining (MW):       32.77            32767604

   convergence    iter        energy       DeltaE   RMS-Dens  Diis-err    time
 ---------------- ----- ----------------- --------- --------- ---------  ------
 d= 0,ls=0.0,diis     1    -79.7266475127 -1.22D+02  1.40D-02  1.74D-01     1.5
 d= 0,ls=0.0,diis     2    -79.7466011754 -2.00D-02  1.99D-03  2.36D-03     1.6
 d= 0,ls=0.0,diis     3    -79.7468735068 -2.72D-04  9.51D-04  1.01D-03     1.7
 d= 0,ls=0.0,diis     4    -79.7469882293 -1.15D-04  3.14D-04  1.64D-04     1.8
 d= 0,ls=0.0,diis     5    -79.7470112649 -2.30D-05  1.51D-05  8.46D-08     1.9
 d= 0,ls=0.0,diis     6    -79.7470112811 -1.62D-08  8.27D-07  4.88D-10     2.1


         Total DFT energy =      -79.747011281078
      One electron energy =     -189.569673893965
           Coulomb energy =       80.472824691680
    Exchange-Corr. energy =      -13.036213129366
 Nuclear repulsion energy =       42.386051050573

 Numeric. integr. density =       18.000000051760

     Total iterative time =      0.7s



                       DFT Final Molecular Orbital Analysis
                       ------------------------------------

 Vector    1  Occ=2.000000D+00  E=-9.900267D+00
              MO Center= -5.4D-01,  2.5D-02, -2.2D-04, r^2= 3.0D-01
   Bfn.  Coefficient  Atom+Function         Bfn.  Coefficient  Atom+Function  
  ----- ------------  ---------------      ----- ------------  ---------------
     1      0.922266  1 C  s                 10      0.373859  2 C  s          
     2      0.036267  1 C  s                  6     -0.031098  1 C  s          

 Vector    2  Occ=2.000000D+00  E=-9.900204D+00
              MO Center=  5.4D-01, -2.5D-02,  2.8D-04, r^2= 3.0D-01
   Bfn.  Coefficient  Atom+Function         Bfn.  Coefficient  Atom+Function  
  ----- ------------  ---------------      ----- ------------  ---------------
    10      0.922268  2 C  s                  1     -0.373864  1 C  s          
    15     -0.038058  2 C  s                 11      0.037373  2 C  s          

 Vector    3  Occ=2.000000D+00  E=-6.723334D-01
              MO Center= -2.9D-05,  3.9D-05, -9.0D-05, r^2= 1.4D+00
   Bfn.  Coefficient  Atom+Function         Bfn.  Coefficient  Atom+Function  
  ----- ------------  ---------------      ----- ------------  ---------------
     2      0.287717  1 C  s                 11      0.287715  2 C  s          
     6      0.237449  1 C  s                 15      0.237375  2 C  s          
     1     -0.149872  1 C  s                 10     -0.149873  2 C  s          
    19      0.084490  3 H  s                 21      0.084516  4 H  s          
    23      0.084480  5 H  s                 25      0.084499  6 H  s          

 Vector    4  Occ=2.000000D+00  E=-5.410078D-01
              MO Center=  7.3D-04,  1.8D-04,  3.0D-05, r^2= 2.2D+00
   Bfn.  Coefficient  Atom+Function         Bfn.  Coefficient  Atom+Function  
  ----- ------------  ---------------      ----- ------------  ---------------
     6      0.265474  1 C  s                 15     -0.265484  2 C  s          
     2      0.255316  1 C  s                 11     -0.255269  2 C  s          
     3     -0.132824  1 C  px                12     -0.133215  2 C  px         
     1     -0.129348  1 C  s                 10      0.129328  2 C  s          
    19      0.119362  3 H  s                 21      0.119330  4 H  s          

 Vector    5  Occ=2.000000D+00  E=-3.775020D-01
              MO Center=  2.5D-05,  2.1D-04,  3.5D-03, r^2= 2.0D+00
   Bfn.  Coefficient  Atom+Function         Bfn.  Coefficient  Atom+Function  
  ----- ------------  ---------------      ----- ------------  ---------------
     4      0.234249  1 C  py                13      0.234290  2 C  py         
     5     -0.222514  1 C  pz                14     -0.222470  2 C  pz         
    19      0.173950  3 H  s                 27     -0.174354  7 H  s          
    20      0.134231  3 H  s                 28     -0.134551  7 H  s          
    23     -0.124637  5 H  s                 29      0.123244  8 H  s          

 Vector    6  Occ=2.000000D+00  E=-3.774362D-01
              MO Center= -2.2D-03, -4.5D-04, -3.3D-03, r^2= 2.0D+00
   Bfn.  Coefficient  Atom+Function         Bfn.  Coefficient  Atom+Function  
  ----- ------------  ---------------      ----- ------------  ---------------
     5      0.234715  1 C  pz                14      0.234346  2 C  pz         
     4      0.222623  1 C  py                13      0.221926  2 C  py         
    21     -0.172603  4 H  s                 25      0.171615  6 H  s          
    22     -0.133252  4 H  s                 26      0.132436  6 H  s          
    29     -0.129941  8 H  s                 23      0.129041  5 H  s          

 Vector    7  Occ=2.000000D+00  E=-3.182030D-01
              MO Center= -7.5D-04, -2.7D-04, -1.1D-04, r^2= 1.7D+00
   Bfn.  Coefficient  Atom+Function         Bfn.  Coefficient  Atom+Function  
  ----- ------------  ---------------      ----- ------------  ---------------
     3      0.417999  1 C  px                12     -0.417870  2 C  px         
     7      0.182387  1 C  px                16     -0.182402  2 C  px         
    29     -0.084927  8 H  s                 19     -0.084464  3 H  s          
    23     -0.084861  5 H  s                 21     -0.084248  4 H  s          
    27     -0.084586  7 H  s                 25     -0.083905  6 H  s          

 Vector    8  Occ=2.000000D+00  E=-2.871460D-01
              MO Center= -4.6D-05, -9.4D-04,  4.5D-03, r^2= 2.4D+00
   Bfn.  Coefficient  Atom+Function         Bfn.  Coefficient  Atom+Function  
  ----- ------------  ---------------      ----- ------------  ---------------
     5      0.244257  1 C  pz                14     -0.244058  2 C  pz         
    19     -0.210260  3 H  s                 27     -0.211146  7 H  s          
    20     -0.207375  3 H  s                 28     -0.208221  7 H  s          
     4     -0.198768  1 C  py                13      0.198945  2 C  py         
    23      0.176304  5 H  s                 29      0.174759  8 H  s          

 Vector    9  Occ=2.000000D+00  E=-2.870438D-01
              MO Center=  2.6D-03,  1.3D-03, -4.5D-03, r^2= 2.4D+00
   Bfn.  Coefficient  Atom+Function         Bfn.  Coefficient  Atom+Function  
  ----- ------------  ---------------      ----- ------------  ---------------
     4      0.243683  1 C  py                13     -0.244084  2 C  py         
    21     -0.223151  4 H  s                 25     -0.223164  6 H  s          
    22     -0.220080  4 H  s                 26     -0.220210  6 H  s          
     5      0.198704  1 C  pz                14     -0.199433  2 C  pz         
    29      0.142823  8 H  s                 23      0.140584  5 H  s          

 Vector   10  Occ=0.000000D+00  E= 8.149249D-02
              MO Center= -3.1D-04, -2.3D-04, -5.5D-04, r^2= 4.6D+00
   Bfn.  Coefficient  Atom+Function         Bfn.  Coefficient  Atom+Function  
  ----- ------------  ---------------      ----- ------------  ---------------
     6      1.555117  1 C  s                 15      1.554177  2 C  s          
    20     -0.770871  3 H  s                 22     -0.771416  4 H  s          
    24     -0.770319  5 H  s                 26     -0.770421  6 H  s          
    28     -0.770834  7 H  s                 30     -0.770840  8 H  s          
     7     -0.486111  1 C  px                16      0.487021  2 C  px         

 Vector   11  Occ=0.000000D+00  E= 1.317183D-01
              MO Center=  1.2D-03, -2.7D-04,  4.1D-04, r^2= 5.1D+00
   Bfn.  Coefficient  Atom+Function         Bfn.  Coefficient  Atom+Function  
  ----- ------------  ---------------      ----- ------------  ---------------
     6      2.258167  1 C  s                 15     -2.259077  2 C  s          
    20     -0.795936  3 H  s                 24     -0.794039  5 H  s          
    28      0.797075  7 H  s                 30      0.793880  8 H  s          
    22     -0.779989  4 H  s                 26      0.780135  6 H  s          
     7      0.207349  1 C  px                16      0.206387  2 C  px         

 Vector   12  Occ=0.000000D+00  E= 1.356737D-01
              MO Center= -1.9D-03, -3.9D-03,  2.5D-02, r^2= 4.3D+00
   Bfn.  Coefficient  Atom+Function         Bfn.  Coefficient  Atom+Function  
  ----- ------------  ---------------      ----- ------------  ---------------
    28     -1.102924  7 H  s                 20      1.084494  3 H  s          
    24     -0.925330  5 H  s                 30      0.886517  8 H  s          
     9      0.584693  1 C  pz                18      0.553859  2 C  pz         
    17     -0.489304  2 C  py                 8     -0.455187  1 C  py         
     5      0.243561  1 C  pz                14      0.236806  2 C  pz         

 Vector   13  Occ=0.000000D+00  E= 1.357163D-01
              MO Center=  3.4D-04,  5.2D-03, -2.5D-02, r^2= 4.3D+00
   Bfn.  Coefficient  Atom+Function         Bfn.  Coefficient  Atom+Function  
  ----- ------------  ---------------      ----- ------------  ---------------
    22      1.166134  4 H  s                 26     -1.156723  6 H  s          
    30      0.758935  8 H  s                 24     -0.714703  5 H  s          
     8      0.583777  1 C  py                17      0.553596  2 C  py         
    18      0.490172  2 C  pz                 9      0.455067  1 C  pz         
    20     -0.432003  3 H  s                 28      0.375671  7 H  s          

 Vector   14  Occ=0.000000D+00  E= 1.656315D-01
              MO Center=  1.3D-03,  1.3D-02, -2.3D-02, r^2= 4.3D+00
   Bfn.  Coefficient  Atom+Function         Bfn.  Coefficient  Atom+Function  
  ----- ------------  ---------------      ----- ------------  ---------------
    22      1.322175  4 H  s                 26      1.322186  6 H  s          
     8      1.085613  1 C  py                17     -1.071593  2 C  py         
    20     -0.691534  3 H  s                 30     -0.682709  8 H  s          
    28     -0.640149  7 H  s                 18     -0.635421  2 C  pz         
    24     -0.630539  5 H  s                  9      0.612227  1 C  pz         

 Vector   15  Occ=0.000000D+00  E= 1.657288D-01
              MO Center=  1.3D-03, -1.4D-02,  2.2D-02, r^2= 4.3D+00
   Bfn.  Coefficient  Atom+Function         Bfn.  Coefficient  Atom+Function  
  ----- ------------  ---------------      ----- ------------  ---------------
    24     -1.162512  5 H  s                 28      1.158558  7 H  s          
    30     -1.134997  8 H  s                 20      1.127048  3 H  s          
     9      1.086771  1 C  pz                18     -1.073721  2 C  pz         
    17      0.636130  2 C  py                 8     -0.611227  1 C  py         
     5      0.261563  1 C  pz                14     -0.255388  2 C  pz         

 Vector   16  Occ=0.000000D+00  E= 2.224886D-01
              MO Center= -8.9D-04,  3.4D-04,  2.0D-04, r^2= 2.9D+00
   Bfn.  Coefficient  Atom+Function         Bfn.  Coefficient  Atom+Function  
  ----- ------------  ---------------      ----- ------------  ---------------
     7      1.806384  1 C  px                16      1.807226  2 C  px         
     6      1.171902  1 C  s                 15     -1.169976  2 C  s          
    20      0.384606  3 H  s                 24      0.385144  5 H  s          
    26     -0.385758  6 H  s                 28     -0.383836  7 H  s          
    30     -0.384771  8 H  s                 22      0.381128  4 H  s          

 Vector   17  Occ=0.000000D+00  E= 4.946587D-01
              MO Center= -1.6D-03,  2.3D-04,  2.6D-04, r^2= 3.4D+00
   Bfn.  Coefficient  Atom+Function         Bfn.  Coefficient  Atom+Function  
  ----- ------------  ---------------      ----- ------------  ---------------
     7      1.014606  1 C  px                16     -1.015868  2 C  px         
     3     -0.654000  1 C  px                12      0.652837  2 C  px         
     6     -0.520627  1 C  s                 15     -0.520144  2 C  s          
    21      0.108047  4 H  s                 19      0.107081  3 H  s          
    29      0.107337  8 H  s                 23      0.106793  5 H  s          

 Vector   18  Occ=0.000000D+00  E= 5.296422D-01
              MO Center=  8.4D-04,  3.7D-03,  1.4D-03, r^2= 2.5D+00
   Bfn.  Coefficient  Atom+Function         Bfn.  Coefficient  Atom+Function  
  ----- ------------  ---------------      ----- ------------  ---------------
     9      0.860439  1 C  pz                18      0.863134  2 C  pz         
     5     -0.469340  1 C  pz                14     -0.471246  2 C  pz         
    23     -0.415516  5 H  s                 29      0.416513  8 H  s          
    21      0.291990  4 H  s                 25     -0.289501  6 H  s          
     8      0.199969  1 C  py                17      0.188584  2 C  py         

 Vector   19  Occ=0.000000D+00  E= 5.297378D-01
              MO Center= -1.1D-03, -4.9D-03, -1.0D-03, r^2= 2.5D+00
   Bfn.  Coefficient  Atom+Function         Bfn.  Coefficient  Atom+Function  
  ----- ------------  ---------------      ----- ------------  ---------------
     8      0.861177  1 C  py                17      0.861227  2 C  py         
     4     -0.469465  1 C  py                13     -0.470232  2 C  py         
    19     -0.409064  3 H  s                 27      0.407367  7 H  s          
    25     -0.313909  6 H  s                 21      0.310344  4 H  s          
     9     -0.201956  1 C  pz                18     -0.187383  2 C  pz         

 Vector   20  Occ=0.000000D+00  E= 6.075489D-01
              MO Center= -1.4D-03, -3.4D-03,  7.2D-03, r^2= 2.9D+00
   Bfn.  Coefficient  Atom+Function         Bfn.  Coefficient  Atom+Function  
  ----- ------------  ---------------      ----- ------------  ---------------
     8      1.627273  1 C  py                17     -1.622633  2 C  py         
     9      1.054192  1 C  pz                18     -1.057877  2 C  pz         
    22      0.682536  4 H  s                 26      0.680989  6 H  s          
     4     -0.606605  1 C  py                13      0.606138  2 C  py         
     5     -0.394303  1 C  pz                14      0.393830  2 C  pz         

 Vector   21  Occ=0.000000D+00  E= 6.078854D-01
              MO Center=  6.5D-04,  3.9D-03, -7.5D-03, r^2= 2.9D+00
   Bfn.  Coefficient  Atom+Function         Bfn.  Coefficient  Atom+Function  
  ----- ------------  ---------------      ----- ------------  ---------------
     9      1.630080  1 C  pz                18     -1.627113  2 C  pz         
    17      1.060559  2 C  py                 8     -1.052323  1 C  py         
    28      0.611437  7 H  s                  5     -0.607163  1 C  pz         
    14      0.607245  2 C  pz                20      0.606499  3 H  s          
    24     -0.578452  5 H  s                 30     -0.574279  8 H  s          

 Vector   22  Occ=0.000000D+00  E= 6.392314D-01
              MO Center=  9.5D-04, -9.7D-05,  2.0D-05, r^2= 2.4D+00
   Bfn.  Coefficient  Atom+Function         Bfn.  Coefficient  Atom+Function  
  ----- ------------  ---------------      ----- ------------  ---------------
     7      1.678202  1 C  px                16      1.680986  2 C  px         
     3     -0.810923  1 C  px                12     -0.811895  2 C  px         
     6      0.790669  1 C  s                 15     -0.788669  2 C  s          
     2     -0.304039  1 C  s                 11      0.304167  2 C  s          
    26     -0.275639  6 H  s                 20      0.273684  3 H  s          

 Vector   23  Occ=0.000000D+00  E= 8.595636D-01
              MO Center= -2.9D-03, -1.2D-02, -5.6D-03, r^2= 3.0D+00
   Bfn.  Coefficient  Atom+Function         Bfn.  Coefficient  Atom+Function  
  ----- ------------  ---------------      ----- ------------  ---------------
    21      0.548909  4 H  s                 27      0.547391  7 H  s          
    29      0.544309  8 H  s                 19      0.539979  3 H  s          
    23      0.539440  5 H  s                 25      0.532765  6 H  s          
    22     -0.363932  4 H  s                 28     -0.358993  7 H  s          
    30     -0.353164  8 H  s                 20     -0.343350  3 H  s          

 Vector   24  Occ=0.000000D+00  E= 8.672191D-01
              MO Center=  3.6D-03,  1.9D-02,  1.0D-03, r^2= 3.7D+00
   Bfn.  Coefficient  Atom+Function         Bfn.  Coefficient  Atom+Function  
  ----- ------------  ---------------      ----- ------------  ---------------
    26     -1.228318  6 H  s                 22      1.217083  4 H  s          
    20     -0.962735  3 H  s                 28      0.954485  7 H  s          
    17      0.939495  2 C  py                 8      0.934462  1 C  py         
     4     -0.634390  1 C  py                13     -0.635907  2 C  py         
    25      0.606313  6 H  s                 21     -0.589634  4 H  s          

 Vector   25  Occ=0.000000D+00  E= 8.672843D-01
              MO Center=  2.8D-05, -5.3D-03,  4.8D-03, r^2= 3.7D+00
   Bfn.  Coefficient  Atom+Function         Bfn.  Coefficient  Atom+Function  
  ----- ------------  ---------------      ----- ------------  ---------------
    24      1.259440  5 H  s                 30     -1.258102  8 H  s          
     9     -0.935575  1 C  pz                18     -0.940151  2 C  pz         
    20     -0.858492  3 H  s                 28      0.860402  7 H  s          
     5      0.635198  1 C  pz                14      0.636478  2 C  pz         
    23     -0.617724  5 H  s                 29      0.613889  8 H  s          

 Vector   26  Occ=0.000000D+00  E= 9.182368D-01
              MO Center= -3.0D-03, -1.2D-03, -6.6D-03, r^2= 3.6D+00
   Bfn.  Coefficient  Atom+Function         Bfn.  Coefficient  Atom+Function  
  ----- ------------  ---------------      ----- ------------  ---------------
    22     -0.841634  4 H  s                 26     -0.835991  6 H  s          
    21      0.767768  4 H  s                 25      0.763780  6 H  s          
    30      0.609589  8 H  s                 24      0.603362  5 H  s          
    29     -0.556150  8 H  s                 23     -0.552536  5 H  s          
     4      0.276791  1 C  py                 5      0.275113  1 C  pz         

 Vector   27  Occ=0.000000D+00  E= 9.183901D-01
              MO Center= -2.0D-04, -1.4D-02,  2.0D-02, r^2= 3.6D+00
   Bfn.  Coefficient  Atom+Function         Bfn.  Coefficient  Atom+Function  
  ----- ------------  ---------------      ----- ------------  ---------------
    28      0.845267  7 H  s                 20      0.819746  3 H  s          
    27     -0.768009  7 H  s                 19     -0.754636  3 H  s          
    24     -0.631162  5 H  s                 30     -0.601636  8 H  s          
    23      0.572099  5 H  s                 29      0.556325  8 H  s          
     5     -0.275863  1 C  pz                14      0.276094  2 C  pz         

 Vector   28  Occ=0.000000D+00  E= 9.226468D-01
              MO Center=  4.2D-03,  1.4D-02, -1.4D-02, r^2= 3.6D+00
   Bfn.  Coefficient  Atom+Function         Bfn.  Coefficient  Atom+Function  
  ----- ------------  ---------------      ----- ------------  ---------------
     6      1.940375  1 C  s                 15     -1.942447  2 C  s          
     2     -0.965170  1 C  s                 11      0.966636  2 C  s          
    20     -0.841135  3 H  s                 30      0.841350  8 H  s          
    26      0.835501  6 H  s                 22     -0.828141  4 H  s          
    24     -0.823172  5 H  s                 28      0.819657  7 H  s          

 Vector   29  Occ=0.000000D+00  E= 1.050513D+00
              MO Center=  5.0D-05, -4.3D-05, -2.0D-04, r^2= 3.0D+00
   Bfn.  Coefficient  Atom+Function         Bfn.  Coefficient  Atom+Function  
  ----- ------------  ---------------      ----- ------------  ---------------
     6      3.124084  1 C  s                 15      3.122083  2 C  s          
     2     -1.644250  1 C  s                 11     -1.644192  2 C  s          
    20     -0.795501  3 H  s                 22     -0.795619  4 H  s          
    24     -0.795759  5 H  s                 26     -0.795392  6 H  s          
    28     -0.795424  7 H  s                 30     -0.796128  8 H  s          

 Vector   30  Occ=0.000000D+00  E= 1.404121D+00
              MO Center=  3.3D-04,  7.1D-04,  1.8D-04, r^2= 2.8D+00
   Bfn.  Coefficient  Atom+Function         Bfn.  Coefficient  Atom+Function  
  ----- ------------  ---------------      ----- ------------  ---------------
     6      5.718871  1 C  s                 15     -5.719746  2 C  s          
     2     -1.647050  1 C  s                 11      1.646247  2 C  s          
     7      1.441619  1 C  px                16      1.438864  2 C  px         
    19     -0.466256  3 H  s                 21     -0.466154  4 H  s          
    23     -0.465880  5 H  s                 25      0.466942  6 H  s          


 center of mass
 --------------
 x =  -0.00011648 y =  -0.00002496 z =   0.00002496

 moments of inertia (a.u.)
 ------------------
          22.626793578407           3.000543093183          -0.030690060476
           3.000543093183          88.475905959055           0.005681240584
          -0.030690060476           0.005681240584          88.613816036181

     Multipole analysis of the density
     ---------------------------------

     L   x y z        total         alpha         beta         nuclear
     -   - - -        -----         -----         ----         -------
     0   0 0 0     -0.000000     -9.000000     -9.000000     18.000000

     1   1 0 0      0.000142      0.000071      0.000071      0.000000
     1   0 1 0      0.000167      0.000084      0.000084      0.000000
     1   0 0 1     -0.000081     -0.000040     -0.000040     -0.000000

     2   2 0 0    -11.336473    -32.077791    -32.077791     52.819108
     2   1 1 0      0.014058      0.953662      0.953662     -1.893266
     2   1 0 1     -0.001014     -0.010187     -0.010187      0.019359
     2   0 2 0    -11.023762    -11.134197    -11.134197     11.244632
     2   0 1 1     -0.001181      0.001976      0.001976     -0.005132
     2   0 0 2    -11.023111    -11.090121    -11.090121     11.157132

                                NWChem TDDFT Module
                                -------------------


                                  TDDFT on ethane


            General Information
            -------------------
           No. of orbitals :      60
            Alpha orbitals :      30
             Beta orbitals :      30
        Alpha frozen cores :       0
         Beta frozen cores :       0
     Alpha frozen virtuals :       0
      Beta frozen virtuals :       0
         Spin multiplicity :       1
    Number of AO functions :      30
        Use of symmetry is : off
      Symmetry adaption is : off
         Schwarz screening :  0.10D-07

              XC Information
              --------------
             Becke 1988 Exchange Functional   1.00          
       Lee-Yang-Parr Correlation Functional   1.00          

             TDDFT Information
             -----------------
          Calculation type : TDDFT             
         Wavefunction type : Restricted singlets & triplets
          No. of electrons :      18
           Alpha electrons :       9
            Beta electrons :       9
              No. of roots :      10
          Max subspacesize :    6000
            Max iterations :     100
               Target root :       1
           Target symmetry : none
      Symmetry restriction : off
                 Algorithm : Optimal
        Davidson threshold :  0.10D-03

            Memory Information
            ------------------
          Available GA space size is         786431100 doubles
          Available MA space size is          31978860 doubles
          Length of a trial vector is          189
          Algorithm : Incore multiple tensor contraction
          Estimated peak GA usage is           4615380 doubles
          Estimated peak MA usage is             71000 doubles

   10 smallest eigenvalue differences (eV) 
--------------------------------------------------------
  No. Spin  Occ  Vir  Irrep   E(Occ)    E(Vir)   E(Diff)
--------------------------------------------------------
    1    1    9   10 a        -0.287     0.081    10.028
    2    1    8   10 a        -0.287     0.081    10.031
    3    1    7   10 a        -0.318     0.081    10.876
    4    1    9   11 a        -0.287     0.132    11.395
    5    1    8   11 a        -0.287     0.132    11.398
    6    1    9   12 a        -0.287     0.136    11.503
    7    1    9   13 a        -0.287     0.136    11.504
    8    1    8   12 a        -0.287     0.136    11.506
    9    1    8   13 a        -0.287     0.136    11.507
   10    1    7   11 a        -0.318     0.132    12.243
--------------------------------------------------------

  Entering Davidson iterations
  Restricted singlet excited states

  Iter   NTrls   NConv    DeltaV     DeltaE      Time   
  ----  ------  ------  ---------  ---------  --------- 
    1     10       0     0.24E+00   0.10+100        0.6
    2     20       0     0.88E-01   0.22E-01        0.6
    3     40       0     0.23E-01   0.10E-01        1.1
    4     60       0     0.77E-02   0.66E-03        1.1
    5     80       1     0.38E-02   0.20E-04        1.2
    6     98       1     0.19E-02   0.34E-05        1.1
    7    116       9     0.21E-03   0.62E-06        1.0
    8    118      10     0.56E-04   0.14E-07        0.3
  ----  ------  ------  ---------  ---------  --------- 
  Convergence criterion met

  Ground state a         -79.747011281078 a.u.

  ----------------------------------------------------------------------------
  Root   1 singlet a              0.375450862 a.u.               10.2165 eV 
  ----------------------------------------------------------------------------
     Transition Moments    X -0.00010   Y -0.00048   Z  0.00007
     Transition Moments   XX -0.13552  XY -1.52035  XZ -1.28061
     Transition Moments   YY -0.50683  YZ -0.73709  ZZ  0.64021
     Dipole Oscillator Strength                    0.0000000615
     Electric Quadrupole                           0.0000013633
     Magnetic Dipole                               0.0000050335
     Total Oscillator Strength                     0.0000064582

     Occ.    6  a   ---  Virt.   11  a   -0.05144 X
     Occ.    9  a   ---  Virt.   10  a    0.99677 X
  ----------------------------------------------------------------------------
  Root   2 singlet a              0.375552354 a.u.               10.2193 eV 
  ----------------------------------------------------------------------------
     Transition Moments    X  0.00003   Y  0.00030   Z  0.00046
     Transition Moments   XX -0.11293  XY -1.20496  XZ  1.46757
     Transition Moments   YY  0.90481  YZ -0.70995  ZZ -0.79057
     Dipole Oscillator Strength                    0.0000000771
     Electric Quadrupole                           0.0000013646
     Magnetic Dipole                               0.0000050381
     Total Oscillator Strength                     0.0000064798

     Occ.    5  a   ---  Virt.   11  a   -0.05175 X
     Occ.    8  a   ---  Virt.   10  a   -0.99676 X
  ----------------------------------------------------------------------------
  Root   3 singlet a              0.411233245 a.u.               11.1902 eV 
  ----------------------------------------------------------------------------
     Transition Moments    X  0.00056   Y -0.00027   Z -0.00028
     Transition Moments   XX  0.19370  XY  0.01444  XZ -0.00304
     Transition Moments   YY  0.56467  YZ -0.00136  ZZ  0.56768
     Dipole Oscillator Strength                    0.0000001296
     Electric Quadrupole                           0.0000000172
     Magnetic Dipole                               0.0000000000
     Total Oscillator Strength                     0.0000001469

     Occ.    7  a   ---  Virt.   10  a   -0.98475 X
     Occ.    8  a   ---  Virt.   15  a   -0.11354 X
     Occ.    9  a   ---  Virt.   14  a   -0.11383 X
  ----------------------------------------------------------------------------
  Root   4 singlet a              0.423027390 a.u.               11.5112 eV 
  ----------------------------------------------------------------------------
     Transition Moments    X -0.00005   Y -0.00116   Z  0.00259
     Transition Moments   XX -0.00957  XY -0.00068  XZ -0.00124
     Transition Moments   YY -0.02121  YZ  0.00002  ZZ -0.01920
     Dipole Oscillator Strength                    0.0000022659
     Electric Quadrupole                           0.0000000000
     Magnetic Dipole                               0.0000000000
     Total Oscillator Strength                     0.0000022659

     Occ.    8  a   ---  Virt.   13  a    0.69606 X
     Occ.    9  a   ---  Virt.   12  a   -0.71729 X
  ----------------------------------------------------------------------------
  Root   5 singlet a              0.425306010 a.u.               11.5732 eV 
  ----------------------------------------------------------------------------
     Transition Moments    X  0.00750   Y  0.17670   Z  0.14294
     Transition Moments   XX -0.00108  XY -0.01722  XZ  0.02602
     Transition Moments   YY  0.01379  YZ -0.00971  ZZ -0.01300
     Dipole Oscillator Strength                    0.0146622357
     Electric Quadrupole                           0.0000000005
     Magnetic Dipole                               0.0000000007
     Total Oscillator Strength                     0.0146622369

     Occ.    6  a   ---  Virt.   10  a   -0.11242 X
     Occ.    7  a   ---  Virt.   13  a   -0.08896 X
     Occ.    8  a   ---  Virt.   12  a   -0.29125 X
     Occ.    8  a   ---  Virt.   13  a   -0.15654 X
     Occ.    9  a   ---  Virt.   11  a    0.87466 X
     Occ.    9  a   ---  Virt.   12  a   -0.14072 X
     Occ.    9  a   ---  Virt.   13  a    0.28569 X
  ----------------------------------------------------------------------------
  Root   6 singlet a              0.425413304 a.u.               11.5761 eV 
  ----------------------------------------------------------------------------
     Transition Moments    X -0.00578   Y -0.14199   Z  0.17545
     Transition Moments   XX -0.00166  XY -0.02707  XZ -0.01986
     Transition Moments   YY -0.00613  YZ -0.01087  ZZ  0.01056
     Dipole Oscillator Strength                    0.0144569312
     Electric Quadrupole                           0.0000000005
     Magnetic Dipole                               0.0000000008
     Total Oscillator Strength                     0.0144569326

     Occ.    5  a   ---  Virt.   10  a    0.11200 X
     Occ.    7  a   ---  Virt.   12  a   -0.08949 X
     Occ.    8  a   ---  Virt.   11  a    0.86728 X
     Occ.    8  a   ---  Virt.   12  a    0.15256 X
     Occ.    8  a   ---  Virt.   13  a   -0.31744 X
     Occ.    9  a   ---  Virt.   12  a   -0.27748 X
     Occ.    9  a   ---  Virt.   13  a   -0.15030 X
  ----------------------------------------------------------------------------
  Root   7 singlet a              0.437404626 a.u.               11.9024 eV 
  ----------------------------------------------------------------------------
     Transition Moments    X -0.00923   Y -0.18434   Z  0.63922
     Transition Moments   XX  0.00778  XY  0.07478  XZ  0.02066
     Transition Moments   YY -0.00328  YZ  0.01243  ZZ -0.00370
     Dipole Oscillator Strength                    0.1290826708
     Electric Quadrupole                           0.0000000028
     Magnetic Dipole                               0.0000000042
     Total Oscillator Strength                     0.1290826778

     Occ.    5  a   ---  Virt.   10  a    0.25613 X
     Occ.    5  a   ---  Virt.   14  a    0.06564 X
     Occ.    6  a   ---  Virt.   10  a   -0.15048 X
     Occ.    6  a   ---  Virt.   15  a   -0.06562 X
     Occ.    7  a   ---  Virt.   12  a    0.23881 X
     Occ.    7  a   ---  Virt.   13  a    0.10431 X
     Occ.    8  a   ---  Virt.   11  a    0.39614 X
     Occ.    8  a   ---  Virt.   13  a    0.56910 X
     Occ.    9  a   ---  Virt.   11  a    0.16497 X
     Occ.    9  a   ---  Virt.   12  a    0.56752 X
  ----------------------------------------------------------------------------
  Root   8 singlet a              0.437455401 a.u.               11.9038 eV 
  ----------------------------------------------------------------------------
     Transition Moments    X  0.02932   Y  0.63866   Z  0.18406
     Transition Moments   XX  0.00313  XY  0.02239  XZ -0.07324
     Transition Moments   YY -0.01468  YZ  0.00792  ZZ  0.01161
     Dipole Oscillator Strength                    0.1290875173
     Electric Quadrupole                           0.0000000027
     Magnetic Dipole                               0.0000000042
     Total Oscillator Strength                     0.1290875242

     Occ.    5  a   ---  Virt.   10  a   -0.15084 X
     Occ.    5  a   ---  Virt.   15  a    0.06583 X
     Occ.    6  a   ---  Virt.   10  a   -0.25697 X
     Occ.    6  a   ---  Virt.   14  a    0.06588 X
     Occ.    7  a   ---  Virt.   12  a   -0.10464 X
     Occ.    7  a   ---  Virt.   13  a    0.23892 X
     Occ.    8  a   ---  Virt.   11  a   -0.16768 X
     Occ.    8  a   ---  Virt.   12  a    0.57038 X
     Occ.    9  a   ---  Virt.   11  a    0.38345 X
     Occ.    9  a   ---  Virt.   13  a   -0.57300 X
  ----------------------------------------------------------------------------
  Root   9 singlet a              0.447150750 a.u.               12.1676 eV 
  ----------------------------------------------------------------------------
     Transition Moments    X  0.53072   Y -0.02255   Z  0.00230
     Transition Moments   XX  0.00019  XY  0.00135  XZ -0.00010
     Transition Moments   YY -0.00162  YZ  0.00030  ZZ -0.00161
     Dipole Oscillator Strength                    0.0841174469
     Electric Quadrupole                           0.0000000000
     Magnetic Dipole                               0.0000000372
     Total Oscillator Strength                     0.0841174840

     Occ.    5  a   ---  Virt.   15  a   -0.08039 X
     Occ.    6  a   ---  Virt.   14  a    0.08098 X
     Occ.    7  a   ---  Virt.   11  a   -0.60604 X
     Occ.    8  a   ---  Virt.   12  a   -0.55226 X
     Occ.    9  a   ---  Virt.   13  a   -0.55290 X
  ----------------------------------------------------------------------------
  Root  10 singlet a              0.452780445 a.u.               12.3208 eV 
  ----------------------------------------------------------------------------
     Transition Moments    X  0.00739   Y -0.00017   Z  0.00089
     Transition Moments   XX  0.00034  XY  0.00418  XZ  0.00221
     Transition Moments   YY  0.00035  YZ  0.00156  ZZ -0.00087
     Dipole Oscillator Strength                    0.0000167306
     Electric Quadrupole                           0.0000000000
     Magnetic Dipole                               0.0000051376
     Total Oscillator Strength                     0.0000218682

     Occ.    7  a   ---  Virt.   11  a   -0.07042 X
     Occ.    8  a   ---  Virt.   14  a    0.69545 X
     Occ.    8  a   ---  Virt.   15  a    0.11141 X
     Occ.    9  a   ---  Virt.   14  a    0.11311 X
     Occ.    9  a   ---  Virt.   15  a   -0.69654 X

              Target root =      1
          Target symmetry = none
      Ground state energy =    -79.747011281078
        Excitation energy =      0.375450861771
     Excited state energy =    -79.371560419306

  stored tddft:energy   -79.371560419306206     

   10 smallest eigenvalue differences (eV) 
--------------------------------------------------------
  No. Spin  Occ  Vir  Irrep   E(Occ)    E(Vir)   E(Diff)
--------------------------------------------------------
    1    1    9   10 a        -0.287     0.081    10.028
    2    1    8   10 a        -0.287     0.081    10.031
    3    1    7   10 a        -0.318     0.081    10.876
    4    1    9   11 a        -0.287     0.132    11.395
    5    1    8   11 a        -0.287     0.132    11.398
    6    1    9   12 a        -0.287     0.136    11.503
    7    1    9   13 a        -0.287     0.136    11.504
    8    1    8   12 a        -0.287     0.136    11.506
    9    1    8   13 a        -0.287     0.136    11.507
   10    1    7   11 a        -0.318     0.132    12.243
--------------------------------------------------------

  Entering Davidson iterations
  Restricted triplet excited states

  Iter   NTrls   NConv    DeltaV     DeltaE      Time   
  ----  ------  ------  ---------  ---------  --------- 
    1     10       0     0.89E-01   0.10+100        0.6
    2     20       0     0.39E-01   0.87E-02        0.6
    3     40       0     0.18E-01   0.19E-01        1.1
    4     60       0     0.43E-02   0.21E-03        1.1
    5     80       0     0.13E-02   0.91E-05        1.1
    6    100       1     0.48E-03   0.51E-06        1.2
    7    118       9     0.11E-03   0.30E-07        1.0
    8    120      10     0.56E-04   0.19E-08        0.3
  ----  ------  ------  ---------  ---------  --------- 
  Convergence criterion met

  Ground state a         -79.747011281078 a.u.

  ----------------------------------------------------------------------------
  Root   1 triplet a              0.355675940 a.u.                9.6784 eV 
  ----------------------------------------------------------------------------
     Transition Moments                    Spin forbidden
     Oscillator Strength                   Spin forbidden

     Occ.    6  a   ---  Virt.   11  a    0.06878 X
     Occ.    8  a   ---  Virt.   15  a    0.06095 X
     Occ.    9  a   ---  Virt.   10  a    0.98972 X
     Occ.    9  a   ---  Virt.   14  a   -0.06154 X
  ----------------------------------------------------------------------------
  Root   2 triplet a              0.355776386 a.u.                9.6812 eV 
  ----------------------------------------------------------------------------
     Transition Moments                    Spin forbidden
     Oscillator Strength                   Spin forbidden

     Occ.    5  a   ---  Virt.   11  a   -0.06949 X
     Occ.    8  a   ---  Virt.   10  a    0.98970 X
     Occ.    8  a   ---  Virt.   14  a    0.06132 X
     Occ.    9  a   ---  Virt.   15  a    0.06113 X
  ----------------------------------------------------------------------------
  Root   3 triplet a              0.385350231 a.u.               10.4859 eV 
  ----------------------------------------------------------------------------
     Transition Moments                    Spin forbidden
     Oscillator Strength                   Spin forbidden

     Occ.    4  a   ---  Virt.   10  a   -0.06728 X
     Occ.    5  a   ---  Virt.   15  a    0.12817 X
     Occ.    6  a   ---  Virt.   14  a   -0.12863 X
     Occ.    7  a   ---  Virt.   11  a    0.11041 X
     Occ.    7  a   ---  Virt.   16  a   -0.08643 X
     Occ.    8  a   ---  Virt.   12  a   -0.68359 X
     Occ.    9  a   ---  Virt.   13  a   -0.68630 X
  ----------------------------------------------------------------------------
  Root   4 triplet a              0.386497700 a.u.               10.5171 eV 
  ----------------------------------------------------------------------------
     Transition Moments                    Spin forbidden
     Oscillator Strength                   Spin forbidden

     Occ.    5  a   ---  Virt.   12  a   -0.07869 X
     Occ.    6  a   ---  Virt.   13  a    0.07865 X
     Occ.    7  a   ---  Virt.   10  a   -0.96808 X
     Occ.    8  a   ---  Virt.   15  a    0.15117 X
     Occ.    9  a   ---  Virt.   14  a    0.15144 X
  ----------------------------------------------------------------------------
  Root   5 triplet a              0.393684461 a.u.               10.7127 eV 
  ----------------------------------------------------------------------------
     Transition Moments                    Spin forbidden
     Oscillator Strength                   Spin forbidden

     Occ.    5  a   ---  Virt.   10  a    0.10530 X
     Occ.    5  a   ---  Virt.   15  a   -0.07266 X
     Occ.    6  a   ---  Virt.   10  a    0.16681 X
     Occ.    6  a   ---  Virt.   14  a   -0.07232 X
     Occ.    7  a   ---  Virt.   12  a    0.07422 X
     Occ.    7  a   ---  Virt.   13  a   -0.15548 X
     Occ.    8  a   ---  Virt.   11  a   -0.28229 X
     Occ.    8  a   ---  Virt.   12  a    0.48555 X
     Occ.    9  a   ---  Virt.   11  a    0.60104 X
     Occ.    9  a   ---  Virt.   13  a   -0.48958 X
  ----------------------------------------------------------------------------
  Root   6 triplet a              0.393702241 a.u.               10.7132 eV 
  ----------------------------------------------------------------------------
     Transition Moments                    Spin forbidden
     Oscillator Strength                   Spin forbidden

     Occ.    5  a   ---  Virt.   10  a   -0.16654 X
     Occ.    5  a   ---  Virt.   14  a   -0.07249 X
     Occ.    6  a   ---  Virt.   10  a    0.10534 X
     Occ.    6  a   ---  Virt.   15  a    0.07256 X
     Occ.    7  a   ---  Virt.   12  a   -0.15631 X
     Occ.    7  a   ---  Virt.   13  a   -0.07441 X
     Occ.    8  a   ---  Virt.   11  a    0.60849 X
     Occ.    8  a   ---  Virt.   13  a    0.47979 X
     Occ.    9  a   ---  Virt.   11  a    0.28101 X
     Occ.    9  a   ---  Virt.   12  a    0.48682 X
  ----------------------------------------------------------------------------
  Root   7 triplet a              0.413426357 a.u.               11.2499 eV 
  ----------------------------------------------------------------------------
     Transition Moments                    Spin forbidden
     Oscillator Strength                   Spin forbidden

     Occ.    6  a   ---  Virt.   10  a   -0.06044 X
     Occ.    8  a   ---  Virt.   12  a    0.44913 X
     Occ.    8  a   ---  Virt.   13  a    0.20121 X
     Occ.    9  a   ---  Virt.   11  a   -0.71517 X
     Occ.    9  a   ---  Virt.   12  a    0.20489 X
     Occ.    9  a   ---  Virt.   13  a   -0.44139 X
  ----------------------------------------------------------------------------
  Root   8 triplet a              0.413533792 a.u.               11.2528 eV 
  ----------------------------------------------------------------------------
     Transition Moments                    Spin forbidden
     Oscillator Strength                   Spin forbidden

     Occ.    5  a   ---  Virt.   10  a    0.06117 X
     Occ.    8  a   ---  Virt.   11  a   -0.70744 X
     Occ.    8  a   ---  Virt.   12  a   -0.20577 X
     Occ.    8  a   ---  Virt.   13  a    0.44764 X
     Occ.    9  a   ---  Virt.   12  a    0.45392 X
     Occ.    9  a   ---  Virt.   13  a    0.20331 X
  ----------------------------------------------------------------------------
  Root   9 triplet a              0.420147764 a.u.               11.4328 eV 
  ----------------------------------------------------------------------------
     Transition Moments                    Spin forbidden
     Oscillator Strength                   Spin forbidden

     Occ.    5  a   ---  Virt.   12  a   -0.12368 X
     Occ.    6  a   ---  Virt.   13  a    0.12439 X
     Occ.    7  a   ---  Virt.   10  a    0.13919 X
     Occ.    8  a   ---  Virt.   13  a   -0.59646 X
     Occ.    8  a   ---  Virt.   14  a   -0.05606 X
     Occ.    8  a   ---  Virt.   15  a    0.34364 X
     Occ.    9  a   ---  Virt.   12  a    0.58835 X
     Occ.    9  a   ---  Virt.   14  a    0.34800 X
     Occ.    9  a   ---  Virt.   15  a    0.05554 X
  ----------------------------------------------------------------------------
  Root  10 triplet a              0.421183444 a.u.               11.4610 eV 
  ----------------------------------------------------------------------------
     Transition Moments                    Spin forbidden
     Oscillator Strength                   Spin forbidden

     Occ.    4  a   ---  Virt.   11  a   -0.05045 X
     Occ.    5  a   ---  Virt.   12  a    0.18767 X
     Occ.    6  a   ---  Virt.   13  a   -0.18913 X
     Occ.    7  a   ---  Virt.   10  a   -0.20112 X
     Occ.    8  a   ---  Virt.   13  a   -0.38845 X
     Occ.    8  a   ---  Virt.   14  a    0.08613 X
     Occ.    8  a   ---  Virt.   15  a   -0.53092 X
     Occ.    9  a   ---  Virt.   12  a    0.38259 X
     Occ.    9  a   ---  Virt.   14  a   -0.53863 X
     Occ.    9  a   ---  Virt.   15  a   -0.08645 X

              Target root =      1
          Target symmetry = none
      Ground state energy =    -79.747011281078
        Excitation energy =      0.355675940169
     Excited state energy =    -79.391335340908

  stored tddft:energy   -79.391335340908469     

 Task  times  cpu:       14.8s     wall:       15.9s


                                NWChem Input Module
                                -------------------


 Summary of allocated global arrays
-----------------------------------
  No active global arrays


MA_summarize_allocated_blocks: starting scan ...
heap block 'gridpts', handle 84, address 0x5559d896a628:
	type of elements:		double precision
	number of elements:		33554432
	address of client space:	0x5559d896a680
	index for client space:		11394887
	total number of bytes:		268435552
MA_summarize_allocated_blocks: scan completed: 1 heap block, 0 stack blocks
MA usage statistics:

	allocation statistics:
					      heap	     stack
					      ----	     -----
	current number of blocks	         1	         0
	maximum number of blocks	        21	        60
	current total bytes		 268435552	         0
	maximum total bytes		 269045968	  22511960
	maximum total K-bytes		    269046	     22512
	maximum total M-bytes		       270	        23


                                     CITATION
                                     --------
                Please cite the following reference when publishing
                           results obtained with NWChem:

          E. Apra, E. J. Bylaska, W. A. de Jong, N. Govind, K. Kowalski,
       T. P. Straatsma, M. Valiev, H. J. J. van Dam, Y. Alexeev, J. Anchell,
       V. Anisimov, F. W. Aquino, R. Atta-Fynn, J. Autschbach, N. P. Bauman,
     J. C. Becca, D. E. Bernholdt, K. Bhaskaran-Nair, S. Bogatko, P. Borowski,
         J. Boschen, J. Brabec, A. Bruner, E. Cauet, Y. Chen, G. N. Chuev,
      C. J. Cramer, J. Daily, M. J. O. Deegan, T. H. Dunning Jr., M. Dupuis,
   K. G. Dyall, G. I. Fann, S. A. Fischer, A. Fonari, H. Fruchtl, L. Gagliardi,
      J. Garza, N. Gawande, S. Ghosh, K. Glaesemann, A. W. Gotz, J. Hammond,
       V. Helms, E. D. Hermes, K. Hirao, S. Hirata, M. Jacquelin, L. Jensen,
   B. G. Johnson, H. Jonsson, R. A. Kendall, M. Klemm, R. Kobayashi, V. Konkov,
      S. Krishnamoorthy, M. Krishnan, Z. Lin, R. D. Lins, R. J. Littlefield,
      A. J. Logsdail, K. Lopata, W. Ma, A. V. Marenich, J. Martin del Campo,
   D. Mejia-Rodriguez, J. E. Moore, J. M. Mullin, T. Nakajima, D. R. Nascimento,
    J. A. Nichols, P. J. Nichols, J. Nieplocha, A. Otero-de-la-Roza, B. Palmer,
    A. Panyala, T. Pirojsirikul, B. Peng, R. Peverati, J. Pittner, L. Pollack,
   R. M. Richard, P. Sadayappan, G. C. Schatz, W. A. Shelton, D. W. Silverstein,
   D. M. A. Smith, T. A. Soares, D. Song, M. Swart, H. L. Taylor, G. S. Thomas,
            V. Tipparaju, D. G. Truhlar, K. Tsemekhman, T. Van Voorhis,
      A. Vazquez-Mayagoitia, P. Verma, O. Villa, A. Vishnu, K. D. Vogiatzis,
        D. Wang, J. H. Weare, M. J. Williamson, T. L. Windus, K. Wolinski,
        A. T. Wong, Q. Wu, C. Yang, Q. Yu, M. Zacharias, Z. Zhang, Y. Zhao,
                                and R. J. Harrison
                        "NWChem: Past, present, and future
                         J. Chem. Phys. 152, 184102 (2020)
                               doi:10.1063/5.0004997

                                      AUTHORS
                                      -------
  E. Apra, E. J. Bylaska, N. Govind, K. Kowalski, M. Valiev, D. Mejia-Rodriguez,
       A. Kunitsa, N. P. Bauman, A. Panyala, W. A. de Jong, T. P. Straatsma,
   H. J. J. van Dam, D. Wang, T. L. Windus, J. Hammond, J. Autschbach, A. Woods,
    K. Bhaskaran-Nair, J. Brabec, K. Lopata, S. A. Fischer, S. Krishnamoorthy,
     M. Jacquelin, W. Ma, M. Klemm, O. Villa, Y. Chen, V. Anisimov, F. Aquino,
     S. Hirata, M. T. Hackler, E. Hermes, L. Jensen, J. E. Moore, J. C. Becca,
      V. Konjkov, T. Risthaus, M. Malagoli, A. Marenich, A. Otero-de-la-Roza,
        J. Mullin, P. Nichols, R. Peverati, J. Pittner, Y. Zhao, P.-D. Fan,
        A. Fonari, M. J. Williamson, R. J. Harrison, J. R. Rehr, M. Dupuis,
     D. Silverstein, D. M. A. Smith, J. Nieplocha, V. Tipparaju, M. Krishnan,
     B. E. Van Kuiken, A. Vazquez-Mayagoitia, M. Swart, Q. Wu, T. Van Voorhis,
     A. A. Auer, M. Nooijen, L. D. Crosby, E. Brown, G. Cisneros, G. I. Fann,
   H. Fruchtl, J. Garza, K. Hirao, R. A. Kendall, J. A. Nichols, K. Tsemekhman,
    K. Wolinski, J. Anchell, D. E. Bernholdt, P. Borowski, T. Clark, D. Clerc,
   H. Dachsel, M. J. O. Deegan, K. Dyall, D. Elwood, E. Glendening, M. Gutowski,
   A. C. Hess, J. Jaffe, B. G. Johnson, J. Ju, R. Kobayashi, R. Kutteh, Z. Lin,
   R. Littlefield, X. Long, B. Meng, T. Nakajima, S. Niu, L. Pollack, M. Rosing,
   K. Glaesemann, G. Sandrone, M. Stave, H. Taylor, G. Thomas, J. H. van Lenthe,
                               A. T. Wong, Z. Zhang.

 Total times  cpu:       14.8s     wall:       18.8s
