SLURM_JOBID=13773523
SLURM_JOB_NODELIST=cpn-p27-24
SLURM_NNODES=1
SLURMTMPDIR=/scratch/13773523
working directory=/user/mrecio/Tutorials_NWChem/2_DFT/b3lyp
 argument  1 = b3lyp.nw
  NWChem w/ OpenMP: maximum threads =    2



============================== echo of input deck ==============================
echo
title "total energy of benzene, B3LYP/3-21G"

start c6h6-b3lyp

geometry
 C    0.99261000     0.99261000     0.00000000
 C   -1.35593048     0.36332048     0.00000000
 C    0.36332048    -1.35593048     0.00000000
 C   -0.99261000    -0.99261000     0.00000000
 C    1.35593048    -0.36332048     0.00000000
 C   -0.36332048     1.35593048     0.00000000
 H    1.75792000     1.75792000     0.00000000
 H   -2.40136338     0.64344338     0.00000000
 H    0.64344338    -2.40136338     0.00000000
 H   -1.75792000    -1.75792000     0.00000000
 H    2.40136338    -0.64344338     0.00000000
 H   -0.64344338     2.40136338     0.00000000
end

basis
* library 3-21G
end

dft
  xc b3lyp
end

task dft energy
task dft optimize
task dft freq
================================================================================


                                         
                                         


             Northwest Computational Chemistry Package (NWChem) 7.2.0
             --------------------------------------------------------


                    Environmental Molecular Sciences Laboratory
                       Pacific Northwest National Laboratory
                                Richland, WA 99352

                              Copyright (c) 1994-2022
                       Pacific Northwest National Laboratory
                            Battelle Memorial Institute

             NWChem is an open-source computational chemistry package
                        distributed under the terms of the
                      Educational Community License (ECL) 2.0
             A copy of the license is included with this distribution
                              in the LICENSE.TXT file

                                  ACKNOWLEDGMENT
                                  --------------

            This software and its documentation were developed at the
            EMSL at Pacific Northwest National Laboratory, a multiprogram
            national laboratory, operated for the U.S. Department of Energy
            by Battelle under Contract Number DE-AC05-76RL01830. Support
            for this work was provided by the Department of Energy Office
            of Biological and Environmental Research, Office of Basic
            Energy Sciences, and the Office of Advanced Scientific Computing.


           Job information
           ---------------

    hostname        = cpn-p27-24.compute.cbls.ccr.buffalo.edu
    program         = /projects/academic/cyberwksp21/Software/nwchem_gcc/bin/nwchem
    date            = Tue Jun 20 15:17:08 2023

    compiled        = Mon_Jun_19_04:47:38_2023
    source          = /user/dmrodriguez/nwchem_gcc
    nwchem branch   = 7.2.0
    nwchem revision = 67bd80fc
    ga revision     = 5.8.0
    use scalapack   = T
    input           = b3lyp.nw
    prefix          = c6h6-b3lyp.
    data base       = ./c6h6-b3lyp.db
    status          = startup
    nproc           =        5
    time left       =     -1s



           Memory information
           ------------------

    heap     =   26214398 doubles =    200.0 Mbytes
    stack    =   26214395 doubles =    200.0 Mbytes
    global   =   52428800 doubles =    400.0 Mbytes (distinct from heap & stack)
    total    =  104857593 doubles =    800.0 Mbytes
    verify   = yes
    hardfail = no 


           Directory information
           ---------------------

  0 permanent = .
  0 scratch   = .




                                NWChem Input Module
                                -------------------


                       total energy of benzene, B3LYP/3-21G
                       ------------------------------------

 Scaling coordinates for geometry "geometry" by  1.889725989
 (inverse scale =  0.529177249)

 D6H symmetry detected

          ------
          auto-z
          ------
  no constraints, skipping    0.0000000000000000     
  no constraints, skipping    0.0000000000000000     


                             Geometry "geometry" -> ""
                             -------------------------

 Output coordinates in angstroms (scale by  1.889725989 to convert to a.u.)

  No.       Tag          Charge          X              Y              Z
 ---- ---------------- ---------- -------------- -------------- --------------
    1 C                    6.0000     0.99261000     0.99261000     0.00000000
    2 C                    6.0000    -1.35593048     0.36332048     0.00000000
    3 C                    6.0000     0.36332048    -1.35593048     0.00000000
    4 C                    6.0000    -0.99261000    -0.99261000     0.00000000
    5 C                    6.0000     1.35593048    -0.36332048     0.00000000
    6 C                    6.0000    -0.36332048     1.35593048     0.00000000
    7 H                    1.0000     1.75792000     1.75792000     0.00000000
    8 H                    1.0000    -2.40136338     0.64344338     0.00000000
    9 H                    1.0000     0.64344338    -2.40136338     0.00000000
   10 H                    1.0000    -1.75792000    -1.75792000     0.00000000
   11 H                    1.0000     2.40136338    -0.64344338     0.00000000
   12 H                    1.0000    -0.64344338     2.40136338     0.00000000

      Atomic Mass 
      ----------- 

      C                 12.000000
      H                  1.007825


 Effective nuclear repulsion energy (a.u.)     202.4405395545

            Nuclear Dipole moment (a.u.) 
            ----------------------------
        X                 Y               Z
 ---------------- ---------------- ----------------
     0.0000000000     0.0000000000     0.0000000000

      Symmetry information
      --------------------

 Group name             D6h       
 Group number             30
 Group order              24
 No. of unique centers     2

      Symmetry unique atoms

     1    7



                                Z-matrix (autoz)
                                -------- 

 Units are Angstrom for bonds and degrees for angles

      Type          Name      I     J     K     L     M      Value
      ----------- --------  ----- ----- ----- ----- ----- ----------
    1 Stretch                  1     5                       1.40376
    2 Stretch                  1     6                       1.40376
    3 Stretch                  1     7                       1.08231
    4 Stretch                  2     4                       1.40376
    5 Stretch                  2     6                       1.40376
    6 Stretch                  2     8                       1.08231
    7 Stretch                  3     4                       1.40376
    8 Stretch                  3     5                       1.40376
    9 Stretch                  3     9                       1.08231
   10 Stretch                  4    10                       1.08231
   11 Stretch                  5    11                       1.08231
   12 Stretch                  6    12                       1.08231
   13 Bend                     1     5     3               120.00000
   14 Bend                     1     5    11               120.00000
   15 Bend                     1     6     2               120.00000
   16 Bend                     1     6    12               120.00000
   17 Bend                     2     4     3               120.00000
   18 Bend                     2     4    10               120.00000
   19 Bend                     2     6    12               120.00000
   20 Bend                     3     4    10               120.00000
   21 Bend                     3     5    11               120.00000
   22 Bend                     4     2     6               120.00000
   23 Bend                     4     2     8               120.00000
   24 Bend                     4     3     5               120.00000
   25 Bend                     4     3     9               120.00000
   26 Bend                     5     1     6               120.00000
   27 Bend                     5     1     7               120.00000
   28 Bend                     5     3     9               120.00000
   29 Bend                     6     1     7               120.00000
   30 Bend                     6     2     8               120.00000
   31 Torsion                  1     5     3     4           0.00000
   32 Torsion                  1     5     3     9         180.00000
   33 Torsion                  1     6     2     4           0.00000
   34 Torsion                  1     6     2     8         180.00000
   35 Torsion                  2     4     3     5           0.00000
   36 Torsion                  2     4     3     9         180.00000
   37 Torsion                  2     6     1     5           0.00000
   38 Torsion                  2     6     1     7         180.00000
   39 Torsion                  3     4     2     6           0.00000
   40 Torsion                  3     4     2     8         180.00000
   41 Torsion                  3     5     1     6           0.00000
   42 Torsion                  3     5     1     7         180.00000
   43 Torsion                  4     2     6    12         180.00000
   44 Torsion                  4     3     5    11         180.00000
   45 Torsion                  5     1     6    12         180.00000
   46 Torsion                  5     3     4    10         180.00000
   47 Torsion                  6     1     5    11         180.00000
   48 Torsion                  6     2     4    10         180.00000
   49 Torsion                  7     1     5    11           0.00000
   50 Torsion                  7     1     6    12          -0.00000
   51 Torsion                  8     2     4    10          -0.00000
   52 Torsion                  8     2     6    12           0.00000
   53 Torsion                  9     3     4    10           0.00000
   54 Torsion                  9     3     5    11           0.00000


            XYZ format geometry
            -------------------
    12
 geometry
 C                     0.99261000     0.99261000     0.00000000
 C                    -1.35593048     0.36332048     0.00000000
 C                     0.36332048    -1.35593048     0.00000000
 C                    -0.99261000    -0.99261000     0.00000000
 C                     1.35593048    -0.36332048     0.00000000
 C                    -0.36332048     1.35593048     0.00000000
 H                     1.75792000     1.75792000     0.00000000
 H                    -2.40136338     0.64344338     0.00000000
 H                     0.64344338    -2.40136338     0.00000000
 H                    -1.75792000    -1.75792000     0.00000000
 H                     2.40136338    -0.64344338     0.00000000
 H                    -0.64344338     2.40136338     0.00000000

 ==============================================================================
                                internuclear distances
 ------------------------------------------------------------------------------
       center one      |      center two      | atomic units |  angstroms
 ------------------------------------------------------------------------------
    4 C                |   2 C                |     2.65273  |     1.40376
    4 C                |   3 C                |     2.65273  |     1.40376
    5 C                |   1 C                |     2.65273  |     1.40376
    5 C                |   3 C                |     2.65273  |     1.40376
    6 C                |   1 C                |     2.65273  |     1.40376
    6 C                |   2 C                |     2.65273  |     1.40376
    7 H                |   1 C                |     2.04527  |     1.08231
    8 H                |   2 C                |     2.04527  |     1.08231
    9 H                |   3 C                |     2.04527  |     1.08231
   10 H                |   4 C                |     2.04527  |     1.08231
   11 H                |   5 C                |     2.04527  |     1.08231
   12 H                |   6 C                |     2.04527  |     1.08231
 ------------------------------------------------------------------------------
                         number of included internuclear distances:         12
 ==============================================================================



 ==============================================================================
                                 internuclear angles
 ------------------------------------------------------------------------------
        center 1       |       center 2       |       center 3       |  degrees
 ------------------------------------------------------------------------------
    5 C                |   1 C                |   6 C                |   120.00
    5 C                |   1 C                |   7 H                |   120.00
    6 C                |   1 C                |   7 H                |   120.00
    4 C                |   2 C                |   6 C                |   120.00
    4 C                |   2 C                |   8 H                |   120.00
    6 C                |   2 C                |   8 H                |   120.00
    4 C                |   3 C                |   5 C                |   120.00
    4 C                |   3 C                |   9 H                |   120.00
    5 C                |   3 C                |   9 H                |   120.00
    2 C                |   4 C                |   3 C                |   120.00
    2 C                |   4 C                |  10 H                |   120.00
    3 C                |   4 C                |  10 H                |   120.00
    1 C                |   5 C                |   3 C                |   120.00
    1 C                |   5 C                |  11 H                |   120.00
    3 C                |   5 C                |  11 H                |   120.00
    1 C                |   6 C                |   2 C                |   120.00
    1 C                |   6 C                |  12 H                |   120.00
    2 C                |   6 C                |  12 H                |   120.00
 ------------------------------------------------------------------------------
                            number of included internuclear angles:         18
 ==============================================================================



  library name resolved from: environment
  library file name is: </projects/academic/cyberwksp21/Software/nwchem_gcc/libraries.bse/>
  


 Summary of "ao basis" -> "" (cartesian)
 ------------------------------------------------------------------------------
       Tag                 Description            Shells   Functions and Types
 ---------------- ------------------------------  ------  ---------------------
 *                           3-21G                    on all atoms 



                                 NWChem DFT Module
                                 -----------------


                       total energy of benzene, B3LYP/3-21G


                      Basis "ao basis" -> "ao basis" (spherical)
                      -----
  C (Carbon)
  ----------
            Exponent  Coefficients 
       -------------- ---------------------------------------------------------
  1 S  1.72256000E+02  0.061767
  1 S  2.59109000E+01  0.358794
  1 S  5.53335000E+00  0.700713

  2 S  3.66498000E+00 -0.395895
  2 S  7.70545000E-01  1.215834

  3 P  3.66498000E+00  0.236460
  3 P  7.70545000E-01  0.860619

  4 S  1.95857000E-01  1.000000

  5 P  1.95857000E-01  1.000000

  H (Hydrogen)
  ------------
            Exponent  Coefficients 
       -------------- ---------------------------------------------------------
  1 S  5.44717800E+00  0.156285
  1 S  8.24547240E-01  0.904691

  2 S  1.83191580E-01  1.000000



 Summary of "ao basis" -> "ao basis" (spherical)
 ------------------------------------------------------------------------------
       Tag                 Description            Shells   Functions and Types
 ---------------- ------------------------------  ------  ---------------------
 C                           3-21G                   5        9   3s2p
 H                           3-21G                   2        2   2s




 Summary of "ao basis" -> "ao basis" (spherical)
 ------------------------------------------------------------------------------
       Tag                 Description            Shells   Functions and Types
 ---------------- ------------------------------  ------  ---------------------
 C                           3-21G                   5        9   3s2p
 H                           3-21G                   2        2   2s


      Symmetry analysis of basis
      --------------------------

        a1g         7
        a1u         0
        a2g         2
        a2u         2
        b1g         0
        b1u         7
        b2g         2
        b2u         2
        e1g         4
        e1u        18
        e2g        18
        e2u         4

  Caching 1-el integrals 

            General Information
            -------------------
          SCF calculation type: DFT
          Wavefunction type:  closed shell.
          No. of atoms     :    12
          No. of electrons :    42
           Alpha electrons :    21
            Beta electrons :    21
          Charge           :     0
          Spin multiplicity:     1
          Use of symmetry is: on ; symmetry adaption is: on 
          Maximum number of iterations:  50
          AO basis - number of functions:    66
                     number of shells:    42
          Convergence on energy requested:  1.00D-06
          Convergence on density requested:  1.00D-05
          Convergence on gradient requested:  5.00D-04

              XC Information
              --------------
                         B3LYP Method XC Potential
                     Hartree-Fock (Exact) Exchange  0.200          
                        Slater Exchange Functional  0.800 local    
                    Becke 1988 Exchange Functional  0.720 non-local
              Lee-Yang-Parr Correlation Functional  0.810          
                  VWN I RPA Correlation Functional  0.190 local    

             Grid Information
             ----------------
          Grid used for XC integration:  medium    
          Radial quadrature: Mura-Knowles        
          Angular quadrature: Lebedev. 
          Tag              B.-S. Rad. Rad. Pts. Rad. Cut. Ang. Pts.
          ---              ---------- --------- --------- ---------
          C                   0.70       49          10.0       434
          H                   0.35       45          11.0       434
          Grid pruning is: on 
          Number of quadrature shells:    94
          Spatial weights used:  Erf1

          Convergence Information
          -----------------------
          Convergence aids based upon iterative change in 
          total energy or number of iterations. 
          Levelshifting, if invoked, occurs when the 
          HOMO/LUMO gap drops below (HL_TOL):  1.00D-02
          DIIS, if invoked, will attempt to extrapolate 
          using up to (NFOCK): 10 stored Fock matrices.

                    Damping( 0%)  Levelshifting(0.5)       DIIS
                  --------------- ------------------- ---------------
          dE  on:    start            ASAP                start   
          dE off:    2 iters         50 iters            50 iters 


      Screening Tolerance Information
      -------------------------------
          Density screening/tol_rho:  1.00D-10
          AO Gaussian exp screening on grid/accAOfunc:  14
          CD Gaussian exp screening on grid/accCDfunc:  20
          XC Gaussian exp screening on grid/accXCfunc:  20
          Schwarz screening/accCoul:  1.00D-08


      Superposition of Atomic Density Guess
      -------------------------------------

 Sum of atomic energies:        -227.75976762

      Non-variational initial energy
      ------------------------------

 Total energy =    -231.937015
 1-e energy   =    -705.828639
 2-e energy   =     271.451085
 HOMO         =      -0.283978
 LUMO         =       0.017158


      Symmetry analysis of molecular orbitals - initial
      -------------------------------------------------

  Numbering of irreducible representations: 

     1 a1g         2 a1u         3 a2g         4 a2u         5 b1g     
     6 b1u         7 b2g         8 b2u         9 e1g        10 e1u     
    11 e2g        12 e2u     

  Orbital symmetries:

     1 a1g         2 e1u         3 e1u         4 b1u         5 e2g     
     6 e2g         7 a1g         8 e1u         9 e1u        10 e2g     
    11 e2g        12 a1g        13 b1u        14 b2u        15 e1u     
    16 e1u        17 a2u        18 e2g        19 e2g        20 e1g     
    21 e1g        22 e2u        23 e2u        24 a1g        25 b2g     
    26 e1u        27 e1u        28 e2g        29 e2g        30 b1u     
    31 e2g     

  WARNING: movecs_in_org=atomic not equal to movecs_in=./c6h6-b3lyp.movecs
   Time after variat. SCF:      1.1
   Time prior to 1st pass:      1.1
  avail0,avail1,avail0-avail1                  8881                 8881                    0
  avail0,avail1,avail0-avail1                  8881                 8881                    0
  avail0,avail1,avail0-avail1                  8881                 8881                    0
  avail0,avail1,avail0-avail1                  8881                 8881                    0

 #quartets = 3.741D+04 #integrals = 1.411D+05 #direct =  0.0% #cached =100.0%


 Integral file          = ./c6h6-b3lyp.aoints.0
 Record size in doubles =  65536        No. of integs per rec  =  43688
 Max. records in memory =      3        Max. records in file   =    134
 No. of bits per label  =      8        No. of bits per value  =     64


File balance: exchanges=     0  moved=     0  time=   0.0

  avail0,avail1,avail0-avail1                  8881                 8881                    0
  avail0,avail1,avail0-avail1                  8881                 8881                    0
  avail0,avail1,avail0-avail1                  8881                 8881                    0
  avail0,avail1,avail0-avail1                  8881                 8881                    0

 Grid_pts file          = ./c6h6-b3lyp.gridpts.0
 Record size in doubles =  12289        No. of grid_pts per rec  =   3070
 Max. records in memory =      4        Max. recs in file   =       719


           Memory utilization after 1st SCF pass: 
           Heap Space remaining (MW):       25.97            25965022
          Stack Space remaining (MW):       26.21            26213724

   convergence    iter        energy       DeltaE   RMS-Dens  Diis-err    time
 ---------------- ----- ----------------- --------- --------- ---------  ------
 d= 0,ls=0.0,diis     1   -230.9167427992 -4.33D+02  8.30D-03  5.38D-01     1.7
 d= 0,ls=0.0,diis     2   -230.9729663692 -5.62D-02  2.54D-03  2.02D-02     1.7
 d= 0,ls=0.0,diis     3   -230.9743517320 -1.39D-03  1.42D-03  8.48D-03     1.8
 d= 0,ls=0.0,diis     4   -230.9755010061 -1.15D-03  2.73D-04  1.42D-04     1.9
 d= 0,ls=0.0,diis     5   -230.9755227564 -2.18D-05  1.05D-05  1.43D-07     1.9
 d= 0,ls=0.0,diis     6   -230.9755227825 -2.61D-08  6.57D-07  4.39D-10     2.0


         Total DFT energy =     -230.975522782522
      One electron energy =     -710.329231459041
           Coulomb energy =      311.561917780504
    Exchange-Corr. energy =      -34.648748658507
 Nuclear repulsion energy =      202.440539554522

 Numeric. integr. density =       41.999994036813

     Total iterative time =      0.8s



                  Occupations of the irreducible representations
                  ----------------------------------------------

                     irrep           alpha         beta
                     --------     --------     --------
                     a1g               3.0          3.0
                     a1u               0.0          0.0
                     a2g               0.0          0.0
                     a2u               1.0          1.0
                     b1g               0.0          0.0
                     b1u               2.0          2.0
                     b2g               0.0          0.0
                     b2u               1.0          1.0
                     e1g               2.0          2.0
                     e1u               6.0          6.0
                     e2g               6.0          6.0
                     e2u               0.0          0.0


                       DFT Final Molecular Orbital Analysis
                       ------------------------------------

 Vector    1  Occ=2.000000D+00  E=-1.012968D+01  Symmetry=b1u
              MO Center= -1.3D-16, -1.3D-17, -6.9D-39, r^2= 2.0D+00
   Bfn.  Coefficient  Atom+Function         Bfn.  Coefficient  Atom+Function  
  ----- ------------  ---------------      ----- ------------  ---------------
     1      0.403057   1 C  s                10      0.403057   2 C  s         
    19      0.403057   3 C  s                28     -0.403057   4 C  s         
    37     -0.403057   5 C  s                46     -0.403057   6 C  s         
     6     -0.091598   1 C  s                15     -0.091598   2 C  s         
    24     -0.091598   3 C  s                33      0.091598   4 C  s         

 Vector    2  Occ=2.000000D+00  E=-1.012903D+01  Symmetry=e2g
              MO Center= -5.1D-13,  2.0D-12, -5.2D-19, r^2= 2.0D+00
   Bfn.  Coefficient  Atom+Function         Bfn.  Coefficient  Atom+Function  
  ----- ------------  ---------------      ----- ------------  ---------------
     1      0.566170   1 C  s                28      0.566170   4 C  s         
    10     -0.334723   2 C  s                37     -0.334723   5 C  s         
    19     -0.231447   3 C  s                46     -0.231447   6 C  s         
     2      0.064992   1 C  s                 6     -0.065250   1 C  s         
    29      0.064992   4 C  s                33     -0.065250   4 C  s         

 Vector    3  Occ=2.000000D+00  E=-1.012903D+01  Symmetry=e2g
              MO Center= -1.2D-16, -6.6D-17, -3.2D-35, r^2= 2.0D+00
   Bfn.  Coefficient  Atom+Function         Bfn.  Coefficient  Atom+Function  
  ----- ------------  ---------------      ----- ------------  ---------------
    19      0.520130   3 C  s                46      0.520130   6 C  s         
    10     -0.460504   2 C  s                37     -0.460504   5 C  s         
    24     -0.059944   3 C  s                51     -0.059944   6 C  s         
     1     -0.059626   1 C  s                20      0.059707   3 C  s         
    28     -0.059626   4 C  s                47      0.059707   6 C  s         

 Vector    4  Occ=2.000000D+00  E=-1.012789D+01  Symmetry=e1u
              MO Center= -4.2D-12, -3.5D-12,  5.1D-18, r^2= 2.0D+00
   Bfn.  Coefficient  Atom+Function         Bfn.  Coefficient  Atom+Function  
  ----- ------------  ---------------      ----- ------------  ---------------
     1      0.543748   1 C  s                28     -0.543748   4 C  s         
    10     -0.417420   2 C  s                37      0.417420   5 C  s         
    19     -0.126328   3 C  s                46      0.126328   6 C  s         
     2      0.058331   1 C  s                29     -0.058331   4 C  s         
    11     -0.044779   2 C  s                38      0.044779   5 C  s         

 Vector    5  Occ=2.000000D+00  E=-1.012789D+01  Symmetry=e1u
              MO Center=  4.1D-12, -6.0D-12, -1.4D-22, r^2= 2.0D+00
   Bfn.  Coefficient  Atom+Function         Bfn.  Coefficient  Atom+Function  
  ----- ------------  ---------------      ----- ------------  ---------------
    19      0.554931   3 C  s                46     -0.554931   6 C  s         
    10     -0.386869   2 C  s                37      0.386869   5 C  s         
     1     -0.168062   1 C  s                28      0.168062   4 C  s         
    20      0.059531   3 C  s                47     -0.059531   6 C  s         
    11     -0.041502   2 C  s                38      0.041502   5 C  s         

 Vector    6  Occ=2.000000D+00  E=-1.012684D+01  Symmetry=a1g
              MO Center=  6.3D-13,  7.5D-12, -1.4D-22, r^2= 2.0D+00
   Bfn.  Coefficient  Atom+Function         Bfn.  Coefficient  Atom+Function  
  ----- ------------  ---------------      ----- ------------  ---------------
     1      0.402317   1 C  s                10      0.402317   2 C  s         
    19      0.402317   3 C  s                28      0.402317   4 C  s         
    37      0.402317   5 C  s                46      0.402317   6 C  s         
     2      0.040478   1 C  s                11      0.040478   2 C  s         
    20      0.040478   3 C  s                29      0.040478   4 C  s         

 Vector    7  Occ=2.000000D+00  E=-8.521221D-01  Symmetry=a1g
              MO Center=  4.1D-15,  4.4D-15, -4.5D-17, r^2= 2.1D+00
   Bfn.  Coefficient  Atom+Function         Bfn.  Coefficient  Atom+Function  
  ----- ------------  ---------------      ----- ------------  ---------------
     6      0.183418   1 C  s                15      0.183418   2 C  s         
    24      0.183418   3 C  s                33      0.183418   4 C  s         
    42      0.183418   5 C  s                51      0.183418   6 C  s         
     2      0.107355   1 C  s                11      0.107355   2 C  s         
    20      0.107355   3 C  s                29      0.107355   4 C  s         

 Vector    8  Occ=2.000000D+00  E=-7.447206D-01  Symmetry=e1u
              MO Center= -5.6D-15, -4.9D-15,  2.3D-17, r^2= 2.9D+00
   Bfn.  Coefficient  Atom+Function         Bfn.  Coefficient  Atom+Function  
  ----- ------------  ---------------      ----- ------------  ---------------
     6      0.321843   1 C  s                33     -0.321843   4 C  s         
    15     -0.188261   2 C  s                42      0.188261   5 C  s         
     2      0.146487   1 C  s                29     -0.146487   4 C  s         
     1     -0.137371   1 C  s                28      0.137371   4 C  s         
    24     -0.133582   3 C  s                51      0.133582   6 C  s         

 Vector    9  Occ=2.000000D+00  E=-7.447206D-01  Symmetry=e1u
              MO Center=  3.4D-16, -7.0D-16, -8.9D-32, r^2= 2.9D+00
   Bfn.  Coefficient  Atom+Function         Bfn.  Coefficient  Atom+Function  
  ----- ------------  ---------------      ----- ------------  ---------------
    24      0.294509   3 C  s                51     -0.294509   6 C  s         
    15     -0.262940   2 C  s                42      0.262940   5 C  s         
    20      0.134045   3 C  s                47     -0.134045   6 C  s         
    19     -0.125704   3 C  s                46      0.125704   6 C  s         
    11     -0.119677   2 C  s                38      0.119677   5 C  s         

 Vector   10  Occ=2.000000D+00  E=-6.043780D-01  Symmetry=e2g
              MO Center=  4.4D-16,  2.7D-15,  2.3D-31, r^2= 3.7D+00
   Bfn.  Coefficient  Atom+Function         Bfn.  Coefficient  Atom+Function  
  ----- ------------  ---------------      ----- ------------  ---------------
     6      0.293600   1 C  s                15     -0.292643   2 C  s         
    33      0.293600   4 C  s                42     -0.292643   5 C  s         
    21     -0.177096   3 C  px               48      0.177096   6 C  px        
    13     -0.101769   2 C  py               40      0.101769   5 C  py        
     4      0.099597   1 C  py               31     -0.099597   4 C  py        

 Vector   11  Occ=2.000000D+00  E=-6.043780D-01  Symmetry=e2g
              MO Center=  3.0D-15, -1.0D-16, -1.8D-16, r^2= 3.7D+00
   Bfn.  Coefficient  Atom+Function         Bfn.  Coefficient  Atom+Function  
  ----- ------------  ---------------      ----- ------------  ---------------
    24      0.338467   3 C  s                51      0.338467   6 C  s         
    15     -0.170063   2 C  s                42     -0.170063   5 C  s         
     6     -0.168405   1 C  s                33     -0.168405   4 C  s         
    13      0.145639   2 C  py               40     -0.145639   5 C  py        
     3     -0.132568   1 C  px               30      0.132568   4 C  px        

 Vector   12  Occ=2.000000D+00  E=-5.272459D-01  Symmetry=a1g
              MO Center= -2.0D-15, -1.5D-15, -3.0D-31, r^2= 4.2D+00
   Bfn.  Coefficient  Atom+Function         Bfn.  Coefficient  Atom+Function  
  ----- ------------  ---------------      ----- ------------  ---------------
    12      0.167419   2 C  px               22      0.167419   3 C  py        
    39     -0.167419   5 C  px               49     -0.167419   6 C  py        
     3     -0.122559   1 C  px                4     -0.122559   1 C  py        
    30      0.122559   4 C  px               31      0.122559   4 C  py        
    16      0.103297   2 C  px               26      0.103297   3 C  py        

 Vector   13  Occ=2.000000D+00  E=-4.627399D-01  Symmetry=b1u
              MO Center=  1.1D-16,  2.4D-16,  3.0D-32, r^2= 5.3D+00
   Bfn.  Coefficient  Atom+Function         Bfn.  Coefficient  Atom+Function  
  ----- ------------  ---------------      ----- ------------  ---------------
     6      0.267476   1 C  s                15      0.267476   2 C  s         
    24      0.267476   3 C  s                33     -0.267476   4 C  s         
    42     -0.267476   5 C  s                51     -0.267476   6 C  s         
    55      0.132590   7 H  s                57      0.132590   8 H  s         
    59      0.132590   9 H  s                61     -0.132590  10 H  s         

 Vector   14  Occ=2.000000D+00  E=-4.507900D-01  Symmetry=b2u
              MO Center= -1.4D-16, -9.9D-17,  8.8D-48, r^2= 2.7D+00
   Bfn.  Coefficient  Atom+Function         Bfn.  Coefficient  Atom+Function  
  ----- ------------  ---------------      ----- ------------  ---------------
    13      0.239172   2 C  py               21     -0.239172   3 C  px        
    40      0.239172   5 C  py               48     -0.239172   6 C  px        
     3      0.175086   1 C  px                4     -0.175086   1 C  py        
    30      0.175086   4 C  px               31     -0.175086   4 C  py        
    17      0.133862   2 C  py               25     -0.133862   3 C  px        

 Vector   15  Occ=2.000000D+00  E=-4.258447D-01  Symmetry=e1u
              MO Center= -4.0D-15,  1.4D-15,  1.7D-17, r^2= 4.0D+00
   Bfn.  Coefficient  Atom+Function         Bfn.  Coefficient  Atom+Function  
  ----- ------------  ---------------      ----- ------------  ---------------
    22      0.249333   3 C  py               49      0.249333   6 C  py        
    26      0.169446   3 C  py               53      0.169446   6 C  py        
     3      0.165711   1 C  px               30      0.165711   4 C  px        
    59     -0.151388   9 H  s                65      0.151388  12 H  s         
    60     -0.137806   9 H  s                66      0.137806  12 H  s         

 Vector   16  Occ=2.000000D+00  E=-4.258447D-01  Symmetry=e1u
              MO Center= -5.2D-16, -4.2D-16, -5.2D-33, r^2= 4.0D+00
   Bfn.  Coefficient  Atom+Function         Bfn.  Coefficient  Atom+Function  
  ----- ------------  ---------------      ----- ------------  ---------------
    12      0.240224   2 C  px               39      0.240224   5 C  px        
     4      0.176032   1 C  py               31      0.176032   4 C  py        
    16      0.164653   2 C  px               43      0.164653   5 C  px        
    57     -0.147124   8 H  s                63      0.147124  11 H  s         
    58     -0.133925   8 H  s                64      0.133925  11 H  s         

 Vector   17  Occ=2.000000D+00  E=-3.639419D-01  Symmetry=a2u
              MO Center= -2.5D-15, -1.8D-16,  1.8D-18, r^2= 2.8D+00
   Bfn.  Coefficient  Atom+Function         Bfn.  Coefficient  Atom+Function  
  ----- ------------  ---------------      ----- ------------  ---------------
     5      0.192218   1 C  pz               14      0.192218   2 C  pz        
    23      0.192218   3 C  pz               32      0.192218   4 C  pz        
    41      0.192218   5 C  pz               50      0.192218   6 C  pz        
     9      0.168743   1 C  pz               18      0.168743   2 C  pz        
    27      0.168743   3 C  pz               36      0.168743   4 C  pz        

 Vector   18  Occ=2.000000D+00  E=-3.466068D-01  Symmetry=e2g
              MO Center=  2.6D-15, -2.2D-15, -4.9D-31, r^2= 4.2D+00
   Bfn.  Coefficient  Atom+Function         Bfn.  Coefficient  Atom+Function  
  ----- ------------  ---------------      ----- ------------  ---------------
    13      0.234182   2 C  py               40     -0.234182   5 C  py        
     4      0.214477   1 C  py               31     -0.214477   4 C  py        
    22      0.199396   3 C  py               49     -0.199396   6 C  py        
    26      0.164176   3 C  py               53     -0.164176   6 C  py        
     8      0.157261   1 C  py               35     -0.157261   4 C  py        

 Vector   19  Occ=2.000000D+00  E=-3.466068D-01  Symmetry=e2g
              MO Center=  8.4D-16,  1.4D-15, -2.0D-17, r^2= 4.2D+00
   Bfn.  Coefficient  Atom+Function         Bfn.  Coefficient  Atom+Function  
  ----- ------------  ---------------      ----- ------------  ---------------
    21      0.232640   3 C  px               48     -0.232640   6 C  px        
     3      0.217560   1 C  px               30     -0.217560   4 C  px        
    12      0.197855   2 C  px               39     -0.197855   5 C  px        
    16      0.164883   2 C  px               43     -0.164883   5 C  px        
    57     -0.156795   8 H  s                58     -0.157104   8 H  s         

 Vector   20  Occ=2.000000D+00  E=-2.501368D-01  Symmetry=e1g
              MO Center= -5.7D-17,  1.5D-15,  1.8D-16, r^2= 3.0D+00
   Bfn.  Coefficient  Atom+Function         Bfn.  Coefficient  Atom+Function  
  ----- ------------  ---------------      ----- ------------  ---------------
     9      0.292435   1 C  pz               36     -0.292435   4 C  pz        
     5      0.279230   1 C  pz               32     -0.279230   4 C  pz        
    27     -0.223575   3 C  pz               54      0.223575   6 C  pz        
    23     -0.213479   3 C  pz               50      0.213479   6 C  pz        
    18     -0.068860   2 C  pz               45      0.068860   5 C  pz        

 Vector   21  Occ=2.000000D+00  E=-2.501368D-01  Symmetry=e1g
              MO Center=  2.0D-15, -1.0D-15, -3.7D-17, r^2= 3.0D+00
   Bfn.  Coefficient  Atom+Function         Bfn.  Coefficient  Atom+Function  
  ----- ------------  ---------------      ----- ------------  ---------------
    18      0.297918   2 C  pz               45     -0.297918   5 C  pz        
    14      0.284465   2 C  pz               41     -0.284465   5 C  pz        
    27     -0.208594   3 C  pz               54      0.208594   6 C  pz        
    23     -0.199174   3 C  pz               50      0.199174   6 C  pz        
     9     -0.089324   1 C  pz               36      0.089324   4 C  pz        

 Vector   22  Occ=0.000000D+00  E= 3.850234D-03  Symmetry=e2u
              MO Center=  7.9D-16,  1.4D-16,  6.8D-17, r^2= 3.3D+00
   Bfn.  Coefficient  Atom+Function         Bfn.  Coefficient  Atom+Function  
  ----- ------------  ---------------      ----- ------------  ---------------
     9      0.512369   1 C  pz               36      0.512369   4 C  pz        
    27     -0.390688   3 C  pz               54     -0.390688   6 C  pz        
     5      0.300712   1 C  pz               32      0.300712   4 C  pz        
    23     -0.229297   3 C  pz               50     -0.229297   6 C  pz        
    18     -0.121680   2 C  pz               45     -0.121680   5 C  pz        

 Vector   23  Occ=0.000000D+00  E= 3.850234D-03  Symmetry=e2u
              MO Center= -1.3D-15,  3.6D-16, -8.1D-16, r^2= 3.3D+00
   Bfn.  Coefficient  Atom+Function         Bfn.  Coefficient  Atom+Function  
  ----- ------------  ---------------      ----- ------------  ---------------
    18      0.521380   2 C  pz               45      0.521380   5 C  pz        
    27     -0.366069   3 C  pz               54     -0.366069   6 C  pz        
    14      0.306001   2 C  pz               41      0.306001   5 C  pz        
    23     -0.214848   3 C  pz               50     -0.214848   6 C  pz        
     9     -0.155312   1 C  pz               36     -0.155312   4 C  pz        

 Vector   24  Occ=0.000000D+00  E= 1.075821D-01  Symmetry=a1g
              MO Center= -3.2D-14,  3.4D-14,  4.4D-17, r^2= 7.9D+00
   Bfn.  Coefficient  Atom+Function         Bfn.  Coefficient  Atom+Function  
  ----- ------------  ---------------      ----- ------------  ---------------
    56      0.704059   7 H  s                58      0.704059   8 H  s         
    60      0.704059   9 H  s                62      0.704059  10 H  s         
    64      0.704059  11 H  s                66      0.704059  12 H  s         
     6     -0.512066   1 C  s                15     -0.512066   2 C  s         
    24     -0.512066   3 C  s                33     -0.512066   4 C  s         

 Vector   25  Occ=0.000000D+00  E= 1.621726D-01  Symmetry=b2g
              MO Center=  1.6D-15, -8.6D-16, -2.9D-18, r^2= 3.5D+00
   Bfn.  Coefficient  Atom+Function         Bfn.  Coefficient  Atom+Function  
  ----- ------------  ---------------      ----- ------------  ---------------
     9      0.533344   1 C  pz               18      0.533344   2 C  pz        
    27      0.533344   3 C  pz               36     -0.533344   4 C  pz        
    45     -0.533344   5 C  pz               54     -0.533344   6 C  pz        
     5      0.251890   1 C  pz               14      0.251890   2 C  pz        
    23      0.251890   3 C  pz               32     -0.251890   4 C  pz        

 Vector   26  Occ=0.000000D+00  E= 1.650619D-01  Symmetry=e1u
              MO Center=  8.4D-15,  4.8D-15, -1.4D-18, r^2= 8.2D+00
   Bfn.  Coefficient  Atom+Function         Bfn.  Coefficient  Atom+Function  
  ----- ------------  ---------------      ----- ------------  ---------------
    56      1.099406   7 H  s                62     -1.099406  10 H  s         
    58     -0.751268   8 H  s                64      0.751268  11 H  s         
     6     -0.724344   1 C  s                33      0.724344   4 C  s         
    15      0.494974   2 C  s                42     -0.494974   5 C  s         
     8     -0.426523   1 C  py               35     -0.426523   4 C  py        

 Vector   27  Occ=0.000000D+00  E= 1.650619D-01  Symmetry=e1u
              MO Center=  2.5D-14, -3.9D-14,  8.7D-18, r^2= 8.2D+00
   Bfn.  Coefficient  Atom+Function         Bfn.  Coefficient  Atom+Function  
  ----- ------------  ---------------      ----- ------------  ---------------
    60      1.068487   9 H  s                66     -1.068487  12 H  s         
    58     -0.835739   8 H  s                64      0.835739  11 H  s         
    24     -0.703973   3 C  s                51      0.703973   6 C  s         
    26      0.562761   3 C  py               53      0.562761   6 C  py        
    15      0.550627   2 C  s                42     -0.550627   5 C  s         

 Vector   28  Occ=0.000000D+00  E= 2.053483D-01  Symmetry=e2g
              MO Center=  8.5D-14,  3.3D-13, -2.3D-17, r^2= 7.9D+00
   Bfn.  Coefficient  Atom+Function         Bfn.  Coefficient  Atom+Function  
  ----- ------------  ---------------      ----- ------------  ---------------
    24     -1.339262   3 C  s                51     -1.339262   6 C  s         
     6      1.300345   1 C  s                33      1.300345   4 C  s         
    60      0.952719   9 H  s                66      0.952719  12 H  s         
    56     -0.925034   7 H  s                62     -0.925034  10 H  s         
    17      0.402237   2 C  py               44     -0.402237   5 C  py        

 Vector   29  Occ=0.000000D+00  E= 2.053483D-01  Symmetry=e2g
              MO Center=  1.7D-13, -4.3D-14,  7.3D-16, r^2= 7.9D+00
   Bfn.  Coefficient  Atom+Function         Bfn.  Coefficient  Atom+Function  
  ----- ------------  ---------------      ----- ------------  ---------------
    15      1.523978   2 C  s                42      1.523978   5 C  s         
    58     -1.084121   8 H  s                64     -1.084121  11 H  s         
     6     -0.795692   1 C  s                33     -0.795692   4 C  s         
    24     -0.728286   3 C  s                51     -0.728286   6 C  s         
    56      0.566036   7 H  s                62      0.566036  10 H  s         

 Vector   30  Occ=0.000000D+00  E= 2.116512D-01  Symmetry=b1u
              MO Center= -2.4D-13, -3.0D-13,  8.9D-18, r^2= 8.9D+00
   Bfn.  Coefficient  Atom+Function         Bfn.  Coefficient  Atom+Function  
  ----- ------------  ---------------      ----- ------------  ---------------
    56      0.972746   7 H  s                58      0.972746   8 H  s         
    60      0.972746   9 H  s                62     -0.972746  10 H  s         
    64     -0.972746  11 H  s                66     -0.972746  12 H  s         
    16      0.721785   2 C  px               26      0.721785   3 C  py        
    43      0.721785   5 C  px               53      0.721785   6 C  py        

 Vector   31  Occ=0.000000D+00  E= 3.217239D-01  Symmetry=e2g
              MO Center= -2.6D-15,  3.4D-15,  7.9D-17, r^2= 4.8D+00
   Bfn.  Coefficient  Atom+Function         Bfn.  Coefficient  Atom+Function  
  ----- ------------  ---------------      ----- ------------  ---------------
    15      1.470570   2 C  s                42      1.470570   5 C  s         
    16      1.335682   2 C  px               43     -1.335682   5 C  px        
    24     -1.199448   3 C  s                51     -1.199448   6 C  s         
    26     -1.157772   3 C  py               53      1.157772   6 C  py        
    58      0.802997   8 H  s                64      0.802997  11 H  s         

 Vector   32  Occ=0.000000D+00  E= 3.217239D-01  Symmetry=e2g
              MO Center=  4.0D-15,  3.4D-15, -5.5D-18, r^2= 4.8D+00
   Bfn.  Coefficient  Atom+Function         Bfn.  Coefficient  Atom+Function  
  ----- ------------  ---------------      ----- ------------  ---------------
     6      1.541536   1 C  s                33      1.541536   4 C  s         
     7     -1.064581   1 C  px               34      1.064581   4 C  px        
    24     -1.005567   3 C  s                51     -1.005567   6 C  s         
     8     -0.886459   1 C  py               35      0.886459   4 C  py        
    56      0.841747   7 H  s                62      0.841747  10 H  s         

 Vector   33  Occ=0.000000D+00  E= 3.331761D-01  Symmetry=e1u
              MO Center=  2.3D-16,  8.3D-15,  8.0D-17, r^2= 4.6D+00
   Bfn.  Coefficient  Atom+Function         Bfn.  Coefficient  Atom+Function  
  ----- ------------  ---------------      ----- ------------  ---------------
     6      1.603218   1 C  s                33     -1.603218   4 C  s         
    17     -1.557613   2 C  py               44     -1.557613   5 C  py        
    25     -1.216780   3 C  px               52     -1.216780   6 C  px        
    24     -1.077530   3 C  s                51      1.077530   6 C  s         
    15     -0.525688   2 C  s                42      0.525688   5 C  s         

 Vector   34  Occ=0.000000D+00  E= 3.331761D-01  Symmetry=e1u
              MO Center=  2.3D-15,  8.1D-15, -8.3D-18, r^2= 4.6D+00
   Bfn.  Coefficient  Atom+Function         Bfn.  Coefficient  Atom+Function  
  ----- ------------  ---------------      ----- ------------  ---------------
    15      1.547731   2 C  s                42     -1.547731   5 C  s         
    24     -1.229124   3 C  s                51      1.229124   6 C  s         
     7      1.219953   1 C  px               34      1.219953   4 C  px        
     8     -1.166697   1 C  py               35     -1.166697   4 C  py        
    25      1.133206   3 C  px               52      1.133206   6 C  px        

 Vector   35  Occ=0.000000D+00  E= 5.685780D-01  Symmetry=b1u
              MO Center=  9.8D-15,  8.1D-15, -5.2D-18, r^2= 3.8D+00
   Bfn.  Coefficient  Atom+Function         Bfn.  Coefficient  Atom+Function  
  ----- ------------  ---------------      ----- ------------  ---------------
     6      2.367606   1 C  s                15      2.367606   2 C  s         
    24      2.367606   3 C  s                33     -2.367606   4 C  s         
    42     -2.367606   5 C  s                51     -2.367606   6 C  s         
    16      1.856082   2 C  px               26      1.856082   3 C  py        
    43      1.856082   5 C  px               53      1.856082   6 C  py        

 Vector   36  Occ=0.000000D+00  E= 5.708277D-01  Symmetry=a2g
              MO Center= -4.1D-15, -7.8D-15, -6.3D-30, r^2= 4.5D+00
   Bfn.  Coefficient  Atom+Function         Bfn.  Coefficient  Atom+Function  
  ----- ------------  ---------------      ----- ------------  ---------------
    17      2.322169   2 C  py               25     -2.322169   3 C  px        
    44     -2.322169   5 C  py               52      2.322169   6 C  px        
     7      1.699946   1 C  px                8     -1.699946   1 C  py        
    34     -1.699946   4 C  px               35      1.699946   4 C  py        
    16      0.622223   2 C  px               26     -0.622223   3 C  py        

 Vector   37  Occ=0.000000D+00  E= 6.716360D-01  Symmetry=b2u
              MO Center=  1.9D-16,  1.1D-15,  7.1D-31, r^2= 4.8D+00
   Bfn.  Coefficient  Atom+Function         Bfn.  Coefficient  Atom+Function  
  ----- ------------  ---------------      ----- ------------  ---------------
    17      0.460487   2 C  py               25     -0.460487   3 C  px        
    44      0.460487   5 C  py               52     -0.460487   6 C  px        
    13     -0.380737   2 C  py               21      0.380737   3 C  px        
    40     -0.380737   5 C  py               48      0.380737   6 C  px        
     7      0.337100   1 C  px                8     -0.337100   1 C  py        

 Vector   38  Occ=0.000000D+00  E= 6.861228D-01  Symmetry=a1g
              MO Center= -2.6D-15, -3.5D-15,  4.8D-18, r^2= 4.2D+00
   Bfn.  Coefficient  Atom+Function         Bfn.  Coefficient  Atom+Function  
  ----- ------------  ---------------      ----- ------------  ---------------
    55      0.327215   7 H  s                57      0.327215   8 H  s         
    59      0.327215   9 H  s                61      0.327215  10 H  s         
    63      0.327215  11 H  s                65      0.327215  12 H  s         
    16      0.294993   2 C  px               26      0.294993   3 C  py        
    43     -0.294993   5 C  px               53     -0.294993   6 C  py        

 Vector   39  Occ=0.000000D+00  E= 6.966998D-01  Symmetry=a2u
              MO Center= -8.2D-17,  3.2D-17, -1.9D-19, r^2= 3.2D+00
   Bfn.  Coefficient  Atom+Function         Bfn.  Coefficient  Atom+Function  
  ----- ------------  ---------------      ----- ------------  ---------------
     5      0.434929   1 C  pz               14      0.434929   2 C  pz        
    23      0.434929   3 C  pz               32      0.434929   4 C  pz        
    41      0.434929   5 C  pz               50      0.434929   6 C  pz        
     9     -0.281155   1 C  pz               18     -0.281155   2 C  pz        
    27     -0.281155   3 C  pz               36     -0.281155   4 C  pz        

 Vector   40  Occ=0.000000D+00  E= 7.366803D-01  Symmetry=e2g
              MO Center=  1.3D-16, -5.0D-16, -8.5D-17, r^2= 4.2D+00
   Bfn.  Coefficient  Atom+Function         Bfn.  Coefficient  Atom+Function  
  ----- ------------  ---------------      ----- ------------  ---------------
    25     -0.569254   3 C  px               52      0.569254   6 C  px        
    21      0.525349   3 C  px               48     -0.525349   6 C  px        
     8      0.346898   1 C  py               35     -0.346898   4 C  py        
    15      0.323781   2 C  s                42      0.323781   5 C  s         
     4     -0.320144   1 C  py               31      0.320144   4 C  py        

 Vector   41  Occ=0.000000D+00  E= 7.366803D-01  Symmetry=e2g
              MO Center= -4.5D-16,  1.6D-16,  6.9D-17, r^2= 4.2D+00
   Bfn.  Coefficient  Atom+Function         Bfn.  Coefficient  Atom+Function  
  ----- ------------  ---------------      ----- ------------  ---------------
    17     -0.484305   2 C  py               44      0.484305   5 C  py        
    13      0.446952   2 C  py               40     -0.446952   5 C  py        
     7      0.430125   1 C  px               34     -0.430125   4 C  px        
     3     -0.396952   1 C  px               30      0.396952   4 C  px        
    24      0.364081   3 C  s                51      0.364081   6 C  s         

 Vector   42  Occ=0.000000D+00  E= 7.873550D-01  Symmetry=e1g
              MO Center=  3.2D-17, -4.6D-17, -2.0D-16, r^2= 3.6D+00
   Bfn.  Coefficient  Atom+Function         Bfn.  Coefficient  Atom+Function  
  ----- ------------  ---------------      ----- ------------  ---------------
    14      0.569311   2 C  pz               41     -0.569311   5 C  pz        
     5     -0.507440   1 C  pz               32      0.507440   4 C  pz        
    18     -0.488666   2 C  pz               45      0.488666   5 C  pz        
     9      0.435560   1 C  pz               36     -0.435560   4 C  pz        
    23     -0.061871   3 C  pz               50      0.061871   6 C  pz        

 Vector   43  Occ=0.000000D+00  E= 7.873550D-01  Symmetry=e1g
              MO Center= -4.7D-17, -1.1D-16, -4.9D-17, r^2= 3.6D+00
   Bfn.  Coefficient  Atom+Function         Bfn.  Coefficient  Atom+Function  
  ----- ------------  ---------------      ----- ------------  ---------------
    23      0.621662   3 C  pz               50     -0.621662   6 C  pz        
    27     -0.533602   3 C  pz               54      0.533602   6 C  pz        
     5     -0.364413   1 C  pz               32      0.364413   4 C  pz        
     9      0.312793   1 C  pz               36     -0.312793   4 C  pz        
    14     -0.257249   2 C  pz               41      0.257249   5 C  pz        

 Vector   44  Occ=0.000000D+00  E= 8.018403D-01  Symmetry=e1u
              MO Center=  4.6D-15,  4.9D-15,  2.7D-17, r^2= 4.6D+00
   Bfn.  Coefficient  Atom+Function         Bfn.  Coefficient  Atom+Function  
  ----- ------------  ---------------      ----- ------------  ---------------
    17      0.737256   2 C  py               44      0.737256   5 C  py        
    13     -0.527780   2 C  py               40     -0.527780   5 C  py        
    25      0.416862   3 C  px               52      0.416862   6 C  px        
    55     -0.393738   7 H  s                61      0.393738  10 H  s         
    59      0.353531   9 H  s                65     -0.353531  12 H  s         

 Vector   45  Occ=0.000000D+00  E= 8.018403D-01  Symmetry=e1u
              MO Center=  2.5D-15, -1.0D-15, -2.2D-17, r^2= 4.6D+00
   Bfn.  Coefficient  Atom+Function         Bfn.  Coefficient  Atom+Function  
  ----- ------------  ---------------      ----- ------------  ---------------
    25      0.613804   3 C  px               52      0.613804   6 C  px        
     7      0.510335   1 C  px               34      0.510335   4 C  px        
     8     -0.476600   1 C  py               35     -0.476600   4 C  py        
    57      0.431436   8 H  s                63     -0.431436  11 H  s         
    21     -0.428613   3 C  px               48     -0.428613   6 C  px        

 Vector   46  Occ=0.000000D+00  E= 8.317938D-01  Symmetry=e2u
              MO Center=  8.5D-17, -1.4D-16, -4.9D-17, r^2= 4.0D+00
   Bfn.  Coefficient  Atom+Function         Bfn.  Coefficient  Atom+Function  
  ----- ------------  ---------------      ----- ------------  ---------------
     9      0.857818   1 C  pz               36      0.857818   4 C  pz        
    27     -0.616208   3 C  pz               54     -0.616208   6 C  pz        
     5     -0.606904   1 C  pz               32     -0.606904   4 C  pz        
    23      0.435965   3 C  pz               50      0.435965   6 C  pz        
    18     -0.241610   2 C  pz               45     -0.241610   5 C  pz        

 Vector   47  Occ=0.000000D+00  E= 8.317938D-01  Symmetry=e2u
              MO Center= -9.3D-16,  3.9D-16,  1.7D-16, r^2= 4.0D+00
   Bfn.  Coefficient  Atom+Function         Bfn.  Coefficient  Atom+Function  
  ----- ------------  ---------------      ----- ------------  ---------------
    18      0.851029   2 C  pz               45      0.851029   5 C  pz        
    27     -0.634755   3 C  pz               54     -0.634755   6 C  pz        
    14     -0.602101   2 C  pz               41     -0.602101   5 C  pz        
    23      0.449087   3 C  pz               50      0.449087   6 C  pz        
     9     -0.216274   1 C  pz               36     -0.216274   4 C  pz        

 Vector   48  Occ=0.000000D+00  E= 8.848806D-01  Symmetry=a1g
              MO Center= -4.2D-16, -8.5D-15,  2.3D-17, r^2= 4.1D+00
   Bfn.  Coefficient  Atom+Function         Bfn.  Coefficient  Atom+Function  
  ----- ------------  ---------------      ----- ------------  ---------------
    55      0.361487   7 H  s                57      0.361487   8 H  s         
    59      0.361487   9 H  s                61      0.361487  10 H  s         
    63      0.361487  11 H  s                65      0.361487  12 H  s         
    56     -0.313207   7 H  s                58     -0.313207   8 H  s         
    60     -0.313207   9 H  s                62     -0.313207  10 H  s         

 Vector   49  Occ=0.000000D+00  E= 9.055960D-01  Symmetry=b2g
              MO Center=  6.5D-16,  5.9D-17, -1.3D-17, r^2= 4.5D+00
   Bfn.  Coefficient  Atom+Function         Bfn.  Coefficient  Atom+Function  
  ----- ------------  ---------------      ----- ------------  ---------------
     9      0.972892   1 C  pz               18      0.972892   2 C  pz        
    27      0.972892   3 C  pz               36     -0.972892   4 C  pz        
    45     -0.972892   5 C  pz               54     -0.972892   6 C  pz        
     5     -0.437033   1 C  pz               14     -0.437033   2 C  pz        
    23     -0.437033   3 C  pz               32      0.437033   4 C  pz        

 Vector   50  Occ=0.000000D+00  E= 9.702494D-01  Symmetry=b1u
              MO Center=  3.7D-17,  4.1D-16,  6.8D-18, r^2= 5.7D+00
   Bfn.  Coefficient  Atom+Function         Bfn.  Coefficient  Atom+Function  
  ----- ------------  ---------------      ----- ------------  ---------------
    16      1.995799   2 C  px               26      1.995799   3 C  py        
    43      1.995799   5 C  px               53      1.995799   6 C  py        
     6      1.503385   1 C  s                15      1.503385   2 C  s         
    24      1.503385   3 C  s                33     -1.503385   4 C  s         
    42     -1.503385   5 C  s                51     -1.503385   6 C  s         

 Vector   51  Occ=0.000000D+00  E= 1.011945D+00  Symmetry=e2g
              MO Center=  1.2D-15,  1.2D-15,  4.4D-18, r^2= 6.4D+00
   Bfn.  Coefficient  Atom+Function         Bfn.  Coefficient  Atom+Function  
  ----- ------------  ---------------      ----- ------------  ---------------
    16      1.426328   2 C  px               43     -1.426328   5 C  px        
    58      1.187038   8 H  s                64      1.187038  11 H  s         
    56     -0.975223   7 H  s                62     -0.975223  10 H  s         
     8      0.955756   1 C  py               35     -0.955756   4 C  py        
     7      0.780905   1 C  px               34     -0.780905   4 C  px        

 Vector   52  Occ=0.000000D+00  E= 1.011945D+00  Symmetry=e2g
              MO Center= -3.6D-15, -1.8D-15,  9.9D-18, r^2= 6.4D+00
   Bfn.  Coefficient  Atom+Function         Bfn.  Coefficient  Atom+Function  
  ----- ------------  ---------------      ----- ------------  ---------------
    26      1.510012   3 C  py               53     -1.510012   6 C  py        
    60      1.248382   9 H  s                66      1.248382  12 H  s         
     7      0.824673   1 C  px               34     -0.824673   4 C  px        
    56     -0.807629   7 H  s                62     -0.807629  10 H  s         
     8      0.613539   1 C  py               35     -0.613539   4 C  py        

 Vector   53  Occ=0.000000D+00  E= 1.103937D+00  Symmetry=a2g
              MO Center= -6.1D-15,  9.3D-15,  7.3D-31, r^2= 4.8D+00
   Bfn.  Coefficient  Atom+Function         Bfn.  Coefficient  Atom+Function  
  ----- ------------  ---------------      ----- ------------  ---------------
    17      3.043474   2 C  py               25     -3.043474   3 C  px        
    44     -3.043474   5 C  py               52      3.043474   6 C  px        
     7      2.227978   1 C  px                8     -2.227978   1 C  py        
    34     -2.227978   4 C  px               35      2.227978   4 C  py        
    16      0.815496   2 C  px               26     -0.815496   3 C  py        

 Vector   54  Occ=0.000000D+00  E= 1.116866D+00  Symmetry=e1u
              MO Center=  1.5D-15,  2.7D-16, -2.2D-18, r^2= 6.2D+00
   Bfn.  Coefficient  Atom+Function         Bfn.  Coefficient  Atom+Function  
  ----- ------------  ---------------      ----- ------------  ---------------
    56      1.002953   7 H  s                62     -1.002953  10 H  s         
    25     -0.754520   3 C  px               52     -0.754520   6 C  px        
    17     -0.673784   2 C  py               44     -0.673784   5 C  py        
    16     -0.658718   2 C  px               43     -0.658718   5 C  px        
     7     -0.633189   1 C  px               34     -0.633189   4 C  px        

 Vector   55  Occ=0.000000D+00  E= 1.116866D+00  Symmetry=e1u
              MO Center= -1.2D-14,  1.3D-14, -4.4D-18, r^2= 6.2D+00
   Bfn.  Coefficient  Atom+Function         Bfn.  Coefficient  Atom+Function  
  ----- ------------  ---------------      ----- ------------  ---------------
    60     -0.899162   9 H  s                66      0.899162  12 H  s         
    58      0.838005   8 H  s                64     -0.838005  11 H  s         
     8     -0.731096   1 C  py               35     -0.731096   4 C  py        
    17     -0.705567   2 C  py               44     -0.705567   5 C  py        
     7      0.659045   1 C  px               34      0.659045   4 C  px        

 Vector   56  Occ=0.000000D+00  E= 1.298036D+00  Symmetry=e1u
              MO Center= -3.8D-15,  4.7D-15,  3.5D-18, r^2= 5.2D+00
   Bfn.  Coefficient  Atom+Function         Bfn.  Coefficient  Atom+Function  
  ----- ------------  ---------------      ----- ------------  ---------------
     6      2.457258   1 C  s                33     -2.457258   4 C  s         
    25     -2.116321   3 C  px               52     -2.116321   6 C  px        
    17     -1.836940   2 C  py               44     -1.836940   5 C  py        
    15     -1.595603   2 C  s                42      1.595603   5 C  s         
     8      1.050748   1 C  py               35      1.050748   4 C  py        

 Vector   57  Occ=0.000000D+00  E= 1.298036D+00  Symmetry=e1u
              MO Center=  1.8D-14, -7.9D-15, -9.6D-18, r^2= 5.2D+00
   Bfn.  Coefficient  Atom+Function         Bfn.  Coefficient  Atom+Function  
  ----- ------------  ---------------      ----- ------------  ---------------
    24      2.339921   3 C  s                51     -2.339921   6 C  s         
    15     -1.916176   2 C  s                42      1.916176   5 C  s         
     7     -1.684749   1 C  px               34     -1.684749   4 C  px        
     8      1.414519   1 C  py               35      1.414519   4 C  py        
    26     -1.218093   3 C  py               53     -1.218093   6 C  py        

 Vector   58  Occ=0.000000D+00  E= 1.332034D+00  Symmetry=a1g
              MO Center=  1.9D-15, -2.0D-15, -2.9D-17, r^2= 5.2D+00
   Bfn.  Coefficient  Atom+Function         Bfn.  Coefficient  Atom+Function  
  ----- ------------  ---------------      ----- ------------  ---------------
     6      0.789519   1 C  s                15      0.789519   2 C  s         
    24      0.789519   3 C  s                33      0.789519   4 C  s         
    42      0.789519   5 C  s                51      0.789519   6 C  s         
     2     -0.632477   1 C  s                11     -0.632477   2 C  s         
    20     -0.632477   3 C  s                29     -0.632477   4 C  s         

 Vector   59  Occ=0.000000D+00  E= 1.448673D+00  Symmetry=b1u
              MO Center= -5.0D-13,  1.4D-12,  1.2D-17, r^2= 6.2D+00
   Bfn.  Coefficient  Atom+Function         Bfn.  Coefficient  Atom+Function  
  ----- ------------  ---------------      ----- ------------  ---------------
    16      2.427072   2 C  px               26      2.427072   3 C  py        
    43      2.427072   5 C  px               53      2.427072   6 C  py        
     7     -1.776740   1 C  px                8     -1.776740   1 C  py        
    34     -1.776740   4 C  px               35     -1.776740   4 C  py        
     6      1.376754   1 C  s                15      1.376754   2 C  s         

 Vector   60  Occ=0.000000D+00  E= 1.462688D+00  Symmetry=e2g
              MO Center= -2.0D-13, -1.0D-13, -6.8D-18, r^2= 5.6D+00
   Bfn.  Coefficient  Atom+Function         Bfn.  Coefficient  Atom+Function  
  ----- ------------  ---------------      ----- ------------  ---------------
    16      1.545889   2 C  px               43     -1.545889   5 C  px        
     7      1.513656   1 C  px               34     -1.513656   4 C  px        
     8      1.239681   1 C  py               35     -1.239681   4 C  py        
     6      1.000805   1 C  s                33      1.000805   4 C  s         
    56     -0.817837   7 H  s                62     -0.817837  10 H  s         

 Vector   61  Occ=0.000000D+00  E= 1.462688D+00  Symmetry=e2g
              MO Center=  6.9D-13, -1.3D-12, -4.0D-17, r^2= 5.6D+00
   Bfn.  Coefficient  Atom+Function         Bfn.  Coefficient  Atom+Function  
  ----- ------------  ---------------      ----- ------------  ---------------
    26      1.867722   3 C  py               53     -1.867722   6 C  py        
    16     -1.221071   2 C  px               43      1.221071   5 C  px        
    24     -1.015682   3 C  s                51     -1.015682   6 C  s         
     8      0.869990   1 C  py               35     -0.869990   4 C  py        
    17      0.837756   2 C  py               44     -0.837756   5 C  py        

 Vector   62  Occ=0.000000D+00  E= 1.544223D+00  Symmetry=e1u
              MO Center=  3.0D-16,  1.1D-16, -7.3D-18, r^2= 2.4D+00
   Bfn.  Coefficient  Atom+Function         Bfn.  Coefficient  Atom+Function  
  ----- ------------  ---------------      ----- ------------  ---------------
     6      1.248146   1 C  s                33     -1.248146   4 C  s         
    15     -0.988396   2 C  s                42      0.988396   5 C  s         
     2     -0.978964   1 C  s                29      0.978964   4 C  s         
    11      0.775234   2 C  s                38     -0.775234   5 C  s         
    25     -0.486091   3 C  px               52     -0.486091   6 C  px        

 Vector   63  Occ=0.000000D+00  E= 1.544223D+00  Symmetry=e1u
              MO Center=  1.5D-16, -1.2D-16, -6.6D-20, r^2= 2.4D+00
   Bfn.  Coefficient  Atom+Function         Bfn.  Coefficient  Atom+Function  
  ----- ------------  ---------------      ----- ------------  ---------------
    24      1.291268   3 C  s                51     -1.291268   6 C  s         
    20     -1.012786   3 C  s                47      1.012786   6 C  s         
    15     -0.870584   2 C  s                42      0.870584   5 C  s         
    11      0.682829   2 C  s                38     -0.682829   5 C  s         
     8      0.480572   1 C  py               17      0.481663   2 C  py        

 Vector   64  Occ=0.000000D+00  E= 1.886436D+00  Symmetry=e2g
              MO Center= -3.6D-15,  6.0D-16,  3.9D-17, r^2= 2.8D+00
   Bfn.  Coefficient  Atom+Function         Bfn.  Coefficient  Atom+Function  
  ----- ------------  ---------------      ----- ------------  ---------------
    24     -2.935705   3 C  s                51     -2.935705   6 C  s         
    15      2.688386   2 C  s                42      2.688386   5 C  s         
    26     -1.838003   3 C  py               53      1.838003   6 C  py        
    16      1.699382   2 C  px               43     -1.699382   5 C  px        
    20      1.036404   3 C  s                47      1.036404   6 C  s         

 Vector   65  Occ=0.000000D+00  E= 1.886436D+00  Symmetry=e2g
              MO Center=  5.0D-14,  4.7D-14,  5.6D-17, r^2= 2.8D+00
   Bfn.  Coefficient  Atom+Function         Bfn.  Coefficient  Atom+Function  
  ----- ------------  ---------------      ----- ------------  ---------------
     6      3.247071   1 C  s                33      3.247071   4 C  s         
    15     -1.837720   2 C  s                42     -1.837720   5 C  s         
     8     -1.474419   1 C  py               35      1.474419   4 C  py        
     7     -1.434352   1 C  px               34      1.434352   4 C  px        
    24     -1.409351   3 C  s                51     -1.409351   6 C  s         

 Vector   66  Occ=0.000000D+00  E= 2.466796D+00  Symmetry=b1u
              MO Center= -2.4D-14, -5.9D-14, -6.2D-18, r^2= 3.8D+00
   Bfn.  Coefficient  Atom+Function         Bfn.  Coefficient  Atom+Function  
  ----- ------------  ---------------      ----- ------------  ---------------
     6      6.738376   1 C  s                15      6.738376   2 C  s         
    24      6.738376   3 C  s                33     -6.738376   4 C  s         
    42     -6.738376   5 C  s                51     -6.738376   6 C  s         
    16      4.177439   2 C  px               26      4.177439   3 C  py        
    43      4.177439   5 C  px               53      4.177439   6 C  py        


 center of mass
 --------------
 x =   0.00000000 y =   0.00000000 z =   0.00000000

 moments of inertia (a.u.)
 ------------------
         320.062201089014           0.000000000000           0.000000000000
           0.000000000000         320.062201089014           0.000000000000
           0.000000000000           0.000000000000         640.124402178029

     Multipole analysis of the density
     ---------------------------------

     L   x y z        total         alpha         beta         nuclear
     -   - - -        -----         -----         ----         -------
     0   0 0 0     -0.000000    -21.000000    -21.000000     42.000000

     1   1 0 0      0.000000      0.000000      0.000000      0.000000
     1   0 1 0      0.000000      0.000000      0.000000      0.000000
     1   0 0 1     -0.000000     -0.000000     -0.000000      0.000000

     2   2 0 0    -23.154087   -108.016461   -108.016461    192.878835
     2   1 1 0      0.000000      0.000000      0.000000      0.000000
     2   1 0 1     -0.000000     -0.000000     -0.000000      0.000000
     2   0 2 0    -23.154087   -108.016461   -108.016461    192.878835
     2   0 1 1      0.000000      0.000000      0.000000      0.000000
     2   0 0 2    -29.714348    -14.857174    -14.857174      0.000000


 Parallel integral file used       5 records with       0 large values


 Task  times  cpu:        1.3s     wall:        1.3s


                                NWChem Input Module
                                -------------------




                           NWChem Geometry Optimization
                           ----------------------------




                       total energy of benzene, B3LYP/3-21G


  no constraints, skipping    0.0000000000000000     
 maximum gradient threshold         (gmax) =   0.000450
 rms gradient threshold             (grms) =   0.000300
 maximum cartesian step threshold   (xmax) =   0.001800
 rms cartesian step threshold       (xrms) =   0.001200
 fixed trust radius                (trust) =   0.300000
 maximum step size to saddle      (sadstp) =   0.100000
 energy precision                  (eprec) =   5.0D-06
 maximum number of steps          (nptopt) =   40
 initial hessian option           (inhess) =    0
 line search option               (linopt) =    1
 hessian update option            (modupd) =    1
 saddle point option              (modsad) =    0
 initial eigen-mode to follow     (moddir) =    0
 initial variable to follow       (vardir) =    0
 follow first negative mode     (firstneg) =    T
 apply conjugacy                    (opcg) =    F
 source of zmatrix                         =   autoz   


          -------------------
          Energy Minimization
          -------------------


 Names of Z-matrix variables 
    1              2              3              4              5         
    6              7              8              9             10         
   11             12             13             14             15         
   16             17             18             19             20         
   21             22             23             24             25         
   26             27             28             29             30         
   31             32             33             34             35         
   36             37             38             39             40         
   41             42             43             44             45         
   46             47             48             49             50         
   51             52             53             54         

 Variables with the same non-blank name are constrained to be equal


 Using diagonal initial Hessian 
 Scaling for Hessian diagonals: bonds = 1.00  angles = 0.25  torsions = 0.10

          --------
          Step   0
          --------


                         Geometry "geometry" -> "geometry"
                         ---------------------------------

 Output coordinates in angstroms (scale by  1.889725989 to convert to a.u.)

  No.       Tag          Charge          X              Y              Z
 ---- ---------------- ---------- -------------- -------------- --------------
    1 C                    6.0000     0.99261000     0.99261000     0.00000000
    2 C                    6.0000    -1.35593048     0.36332048     0.00000000
    3 C                    6.0000     0.36332048    -1.35593048     0.00000000
    4 C                    6.0000    -0.99261000    -0.99261000     0.00000000
    5 C                    6.0000     1.35593048    -0.36332048     0.00000000
    6 C                    6.0000    -0.36332048     1.35593048     0.00000000
    7 H                    1.0000     1.75792000     1.75792000     0.00000000
    8 H                    1.0000    -2.40136338     0.64344338     0.00000000
    9 H                    1.0000     0.64344338    -2.40136338     0.00000000
   10 H                    1.0000    -1.75792000    -1.75792000     0.00000000
   11 H                    1.0000     2.40136338    -0.64344338     0.00000000
   12 H                    1.0000    -0.64344338     2.40136338     0.00000000

      Atomic Mass 
      ----------- 

      C                 12.000000
      H                  1.007825


 Effective nuclear repulsion energy (a.u.)     202.4405395545

            Nuclear Dipole moment (a.u.) 
            ----------------------------
        X                 Y               Z
 ---------------- ---------------- ----------------
     0.0000000000     0.0000000000     0.0000000000

      Symmetry information
      --------------------

 Group name             D6h       
 Group number             30
 Group order              24
 No. of unique centers     2

      Symmetry unique atoms

     1    7


                                 NWChem DFT Module
                                 -----------------


                       total energy of benzene, B3LYP/3-21G




 Summary of "ao basis" -> "ao basis" (spherical)
 ------------------------------------------------------------------------------
       Tag                 Description            Shells   Functions and Types
 ---------------- ------------------------------  ------  ---------------------
 C                           3-21G                   5        9   3s2p
 H                           3-21G                   2        2   2s


      Symmetry analysis of basis
      --------------------------

        a1g         7
        a1u         0
        a2g         2
        a2u         2
        b1g         0
        b1u         7
        b2g         2
        b2u         2
        e1g         4
        e1u        18
        e2g        18
        e2u         4


  The DFT is already converged 

         Total DFT energy =   -230.975522782522


            General Information
            -------------------
          SCF calculation type: DFT
          Wavefunction type:  closed shell.
          No. of atoms     :    12
          No. of electrons :    42
           Alpha electrons :    21
            Beta electrons :    21
          Charge           :     0
          Spin multiplicity:     1
          Use of symmetry is: on ; symmetry adaption is: on 
          Maximum number of iterations:  50
          AO basis - number of functions:    66
                     number of shells:    42
          Convergence on energy requested:  1.00D-06
          Convergence on density requested:  1.00D-05
          Convergence on gradient requested:  5.00D-04

              XC Information
              --------------
                         B3LYP Method XC Potential
                     Hartree-Fock (Exact) Exchange  0.200          
                        Slater Exchange Functional  0.800 local    
                    Becke 1988 Exchange Functional  0.720 non-local
              Lee-Yang-Parr Correlation Functional  0.810          
                  VWN I RPA Correlation Functional  0.190 local    

             Grid Information
             ----------------
          Grid used for XC integration:  medium    
          Radial quadrature: Mura-Knowles        
          Angular quadrature: Lebedev. 
          Tag              B.-S. Rad. Rad. Pts. Rad. Cut. Ang. Pts.
          ---              ---------- --------- --------- ---------
          C                   0.70       49          10.0       434
          H                   0.35       45          11.0       434
          Grid pruning is: on 
          Number of quadrature shells:    94
          Spatial weights used:  Erf1

          Convergence Information
          -----------------------
          Convergence aids based upon iterative change in 
          total energy or number of iterations. 
          Levelshifting, if invoked, occurs when the 
          HOMO/LUMO gap drops below (HL_TOL):  1.00D-02
          DIIS, if invoked, will attempt to extrapolate 
          using up to (NFOCK): 10 stored Fock matrices.

                    Damping( 0%)  Levelshifting(0.5)       DIIS
                  --------------- ------------------- ---------------
          dE  on:    start            ASAP                start   
          dE off:    2 iters         50 iters            50 iters 


      Screening Tolerance Information
      -------------------------------
          Density screening/tol_rho:  1.00D-10
          AO Gaussian exp screening on grid/accAOfunc:  14
          CD Gaussian exp screening on grid/accCDfunc:  20
          XC Gaussian exp screening on grid/accXCfunc:  20
          Schwarz screening/accCoul:  1.00D-08



                            NWChem DFT Gradient Module
[...]
           3     0.00000    -0.00000     0.00000    -0.00000     0.00000    -0.00000
           4    -0.10938     0.08867     0.02900    -0.01141    -0.01520     0.00723
           5     0.02926     0.01176    -0.07109    -0.04257    -0.05326     0.03271
           6     0.00000    -0.00000    -0.00000     0.00000     0.00000    -0.00000
           7     0.02926    -0.01352    -0.07078     0.04257    -0.05453    -0.03055
           8    -0.10937    -0.08793     0.03120     0.01141    -0.01547    -0.00662
           9     0.00000    -0.00000     0.00000    -0.00000     0.00000    -0.00000
          10     0.08013    -0.04875     0.06753    -0.03116     0.00214     0.04572
          11     0.08013     0.05042     0.06629     0.03116     0.00031    -0.04577
          12    -0.00000     0.00000    -0.00000    -0.00000    -0.00000     0.00000
          13    -0.10938     0.08867     0.02900    -0.01141     0.01520    -0.00723
          14     0.02926     0.01176    -0.07109    -0.04257     0.05326    -0.03271
          15    -0.00000     0.00000     0.00000     0.00000    -0.00000     0.00000
          16     0.02926    -0.01352    -0.07078     0.04257     0.05453     0.03055
          17    -0.10937    -0.08793     0.03120     0.01141     0.01548     0.00662
          18    -0.00000     0.00000     0.00000    -0.00000    -0.00000    -0.00000
          19     0.07958    -0.27760     0.07493    -0.26669    -0.00862    -0.37464
          20     0.07957     0.27939     0.06800     0.26669     0.00640     0.37469
          21    -0.00000     0.00000    -0.00000    -0.00000     0.00000    -0.00000
          22    -0.10866     0.13508    -0.04104    -0.09762    -0.11817     0.06965
          23     0.02886     0.16328    -0.34465    -0.36430    -0.43789     0.26513
          24    -0.00000     0.00000     0.00000    -0.00000    -0.00000     0.00000
          25     0.02887    -0.17181    -0.34048     0.36430    -0.44816    -0.24737
          26    -0.10866    -0.13607    -0.03767     0.09762    -0.12087    -0.06486
          27    -0.00000     0.00000     0.00000    -0.00000     0.00000    -0.00000
          28     0.07958    -0.27761     0.07493    -0.26669     0.00862     0.37464
          29     0.07957     0.27939     0.06799     0.26669    -0.00639    -0.37468
          30     0.00000    -0.00000     0.00000    -0.00000    -0.00000    -0.00000
          31    -0.10866     0.13508    -0.04104    -0.09762     0.11817    -0.06965
          32     0.02886     0.16328    -0.34465    -0.36430     0.43789    -0.26512
          33     0.00000    -0.00000    -0.00000    -0.00000     0.00000    -0.00000
          34     0.02887    -0.17181    -0.34048     0.36430     0.44816     0.24737
          35    -0.10866    -0.13607    -0.03767     0.09762     0.12087     0.06486
          36     0.00000    -0.00000    -0.00000    -0.00000    -0.00000     0.00000

                   25          26          27          28          29          30
 
 P.Frequency     1316.59     1436.67     1540.31     1540.31     1627.25     1627.25
 
           1    -0.07729     0.03813     0.07190     0.04074    -0.02962    -0.10497
           2     0.07729    -0.03813    -0.06975     0.04432    -0.06140     0.09014
           3    -0.00000    -0.00000    -0.00000    -0.00000     0.00000    -0.00000
           4    -0.02829     0.01396    -0.06311     0.00820    -0.05614    -0.04608
           5    -0.10558     0.05209    -0.03721    -0.09068    -0.12028     0.06361
           6     0.00000    -0.00000    -0.00000     0.00000     0.00000     0.00000
           7     0.10558    -0.05209     0.03258    -0.09245    -0.09387    -0.09850
           8     0.02829    -0.01396     0.06344     0.00500    -0.06787     0.02588
           9    -0.00000     0.00000    -0.00000    -0.00000     0.00000    -0.00000
          10    -0.07729    -0.03813     0.07190     0.04074     0.02962     0.10496
          11     0.07729     0.03813    -0.06975     0.04432     0.06140    -0.09014
          12    -0.00000    -0.00000     0.00000     0.00000    -0.00000    -0.00000
          13    -0.02829    -0.01396    -0.06311     0.00820     0.05614     0.04608
          14    -0.10558    -0.05209    -0.03721    -0.09069     0.12028    -0.06361
          15     0.00000     0.00000     0.00000     0.00000    -0.00000     0.00000
          16     0.10558     0.05209     0.03258    -0.09245     0.09387     0.09850
          17     0.02829     0.01396     0.06344     0.00500     0.06787    -0.02588
          18    -0.00000    -0.00000    -0.00000    -0.00000     0.00000    -0.00000
          19     0.10754    -0.25568    -0.28388     0.05894    -0.07311     0.13564
          20    -0.10754     0.25568     0.28650     0.04451    -0.02628    -0.15183
          21    -0.00000    -0.00000    -0.00000    -0.00000    -0.00000    -0.00000
          22     0.03936    -0.09359    -0.00582     0.12596     0.02548    -0.08321
          23     0.14690    -0.34927     0.21948     0.32258     0.19256    -0.05324
          24    -0.00000     0.00000     0.00000    -0.00000    -0.00000    -0.00000
          25    -0.14690     0.34927    -0.20289     0.33326     0.16571     0.11160
          26    -0.03936     0.09359     0.01218     0.12550    -0.00224     0.08699
          27    -0.00000    -0.00000    -0.00000    -0.00000     0.00000    -0.00000
          28     0.10754     0.25568    -0.28388     0.05894     0.07311    -0.13564
          29    -0.10754    -0.25568     0.28650     0.04451     0.02628     0.15183
          30    -0.00000     0.00000     0.00000    -0.00000     0.00000    -0.00000
          31     0.03936     0.09359    -0.00582     0.12596    -0.02548     0.08321
          32     0.14690     0.34926     0.21948     0.32258    -0.19256     0.05324
          33    -0.00000    -0.00000    -0.00000    -0.00000     0.00000    -0.00000
          34    -0.14690    -0.34926    -0.20289     0.33326    -0.16571    -0.11160
          35    -0.03936    -0.09359     0.01218     0.12550     0.00224    -0.08699
          36    -0.00000     0.00000     0.00000    -0.00000    -0.00000    -0.00000

                   31          32          33          34          35          36
 
 P.Frequency     3183.01     3191.75     3191.75     3208.21     3208.21     3221.52
 
           1     0.02305     0.00165     0.03308    -0.00233    -0.03444    -0.02520
           2     0.02305    -0.00046     0.03311     0.00181    -0.03447    -0.02520
           3     0.00000     0.00000     0.00000    -0.00000     0.00000     0.00000
           4    -0.03148     0.03937     0.02224     0.04097    -0.02319     0.03442
           5     0.00844    -0.01130    -0.00461    -0.00944     0.00883    -0.00922
           6     0.00000    -0.00000    -0.00000    -0.00000     0.00000    -0.00000
           7     0.00844     0.01112    -0.00501     0.00957     0.00869    -0.00922
           8    -0.03148    -0.03855     0.02364    -0.04131    -0.02257     0.03442
           9     0.00000     0.00000    -0.00000    -0.00000    -0.00000     0.00000
          10     0.02305    -0.00165    -0.03308    -0.00233    -0.03444     0.02520
          11     0.02305     0.00046    -0.03311     0.00181    -0.03447     0.02520
          12    -0.00000     0.00000     0.00000     0.00000     0.00000    -0.00000
          13    -0.03148    -0.03937    -0.02224     0.04097    -0.02319    -0.03442
          14     0.00844     0.01130     0.00461    -0.00944     0.00883     0.00922
          15    -0.00000    -0.00000    -0.00000     0.00000    -0.00000    -0.00000
          16     0.00844    -0.01112     0.00502     0.00957     0.00869     0.00922
          17    -0.03148     0.03855    -0.02364    -0.04131    -0.02257    -0.03442
          18    -0.00000     0.00000    -0.00000    -0.00000    -0.00000    -0.00000
          19    -0.27632    -0.00869    -0.39018     0.00613     0.38878     0.27409
          20    -0.27632    -0.00537    -0.39024    -0.00029     0.38883     0.27409
          21     0.00000     0.00000     0.00000    -0.00000     0.00000     0.00000
          22     0.37749    -0.46613    -0.25872    -0.45856     0.26799    -0.37441
          23    -0.10115     0.12607     0.06720     0.12049    -0.07586     0.10032
          24    -0.00000     0.00000     0.00000     0.00000    -0.00000     0.00000
          25    -0.10115    -0.12357     0.07170    -0.12162    -0.07404     0.10032
          26     0.37749     0.45650    -0.27535     0.46253     0.26107    -0.37441
          27     0.00000     0.00000    -0.00000    -0.00000    -0.00000     0.00000
          28    -0.27634     0.00869     0.39017     0.00613     0.38878    -0.27409
          29    -0.27634     0.00537     0.39023    -0.00029     0.38882    -0.27409
          30     0.00000     0.00000    -0.00000     0.00000    -0.00000     0.00000
          31     0.37748     0.46613     0.25874    -0.45855     0.26800     0.37441
          32    -0.10115    -0.12608    -0.06720     0.12049    -0.07586    -0.10032
          33     0.00000     0.00000     0.00000    -0.00000     0.00000     0.00000
          34    -0.10115     0.12357    -0.07170    -0.12162    -0.07404    -0.10032
          35     0.37748    -0.45650     0.27537     0.46253     0.26108     0.37441
          36    -0.00000     0.00000     0.00000     0.00000    -0.00000     0.00000



 ----------------------------------------------------------------------------
 Normal Eigenvalue ||    Projected Derivative Dipole Moments (debye/angs)
  Mode   [cm**-1]  ||      [d/dqX]             [d/dqY]           [d/dqZ]
 ------ ---------- || ------------------ ------------------ -----------------
    1       -0.000 ||      -0.000               0.000            -0.000
    2       -0.000 ||       0.000              -0.000            -0.000
    3        0.000 ||      -0.000               0.000             0.000
    4        0.000 ||       0.000               0.000            -0.000
    5        0.000 ||       0.000              -0.000            -0.000
    6        0.000 ||       0.000              -0.000             0.000
    7      423.192 ||       0.000               0.000             0.000
    8      423.197 ||      -0.000              -0.000            -0.000
    9      647.753 ||       0.000              -0.000            -0.000
   10      647.758 ||       0.000               0.000            -0.000
   11      698.886 ||       0.000               0.000             1.668
   12      754.393 ||       0.000              -0.000             0.000
   13      878.123 ||       0.000              -0.000            -0.000
   14      878.128 ||       0.000               0.000            -0.000
   15     1007.865 ||       0.000               0.000            -0.000
   16     1007.868 ||      -0.000              -0.000            -0.000
   17     1015.016 ||       0.000               0.000            -0.000
   18     1048.289 ||      -0.000               0.000            -0.000
   19     1064.414 ||      -0.000              -0.000             0.000
   20     1068.904 ||      -0.221               0.216             0.000
   21     1068.915 ||       0.216               0.221            -0.000
   22     1228.198 ||      -0.000               0.000            -0.000
   23     1238.051 ||      -0.000              -0.000             0.000
   24     1238.051 ||      -0.000               0.000            -0.000
   25     1316.590 ||       0.000              -0.000             0.000
   26     1436.668 ||       0.000              -0.000            -0.000
   27     1540.311 ||      -0.363               0.381            -0.000
   28     1540.314 ||       0.381               0.363            -0.000
   29     1627.251 ||       0.000               0.000             0.000
   30     1627.251 ||       0.000              -0.000            -0.000
   31     3183.010 ||      -0.000              -0.000             0.000
   32     3191.746 ||      -0.000               0.000             0.000
   33     3191.746 ||      -0.000              -0.000             0.000
   34     3208.206 ||       0.627              -0.637             0.000
   35     3208.213 ||      -0.637              -0.627            -0.000
   36     3221.520 ||       0.000               0.000             0.000
 ----------------------------------------------------------------------------



  
  
 ----------------------------------------------------------------------------
 Normal Eigenvalue ||           Projected Infra Red Intensities
  Mode   [cm**-1]  || [atomic units] [(debye/angs)**2] [(KM/mol)] [arbitrary]
 ------ ---------- || -------------- ----------------- ---------- -----------
    1       -0.000 ||    0.000000           0.000         0.000       0.000
    2       -0.000 ||    0.000000           0.000         0.000       0.000
    3        0.000 ||    0.000000           0.000         0.000       0.000
    4        0.000 ||    0.000000           0.000         0.000       0.000
    5        0.000 ||    0.000000           0.000         0.000       0.000
    6        0.000 ||    0.000000           0.000         0.000       0.000
    7      423.192 ||    0.000000           0.000         0.000       0.000
    8      423.197 ||    0.000000           0.000         0.000       0.000
    9      647.753 ||    0.000000           0.000         0.000       0.000
   10      647.758 ||    0.000000           0.000         0.000       0.000
   11      698.886 ||    0.120602           2.782       117.569     195.460
   12      754.393 ||    0.000000           0.000         0.000       0.000
   13      878.123 ||    0.000000           0.000         0.000       0.000
   14      878.128 ||    0.000000           0.000         0.000       0.000
   15     1007.865 ||    0.000000           0.000         0.000       0.000
   16     1007.868 ||    0.000000           0.000         0.000       0.000
   17     1015.016 ||    0.000000           0.000         0.000       0.000
   18     1048.289 ||    0.000000           0.000         0.000       0.000
   19     1064.414 ||    0.000000           0.000         0.000       0.000
   20     1068.904 ||    0.004133           0.095         4.029       6.698
   21     1068.915 ||    0.004133           0.095         4.029       6.698
   22     1228.198 ||    0.000000           0.000         0.000       0.000
   23     1238.051 ||    0.000000           0.000         0.000       0.000
   24     1238.051 ||    0.000000           0.000         0.000       0.000
   25     1316.590 ||    0.000000           0.000         0.000       0.000
   26     1436.668 ||    0.000000           0.000         0.000       0.000
   27     1540.311 ||    0.012006           0.277        11.704      19.458
   28     1540.314 ||    0.012005           0.277        11.703      19.457
   29     1627.251 ||    0.000000           0.000         0.000       0.000
   30     1627.251 ||    0.000000           0.000         0.000       0.000
   31     3183.010 ||    0.000000           0.000         0.000       0.000
   32     3191.746 ||    0.000000           0.000         0.000       0.000
   33     3191.746 ||    0.000000           0.000         0.000       0.000
   34     3208.206 ||    0.034622           0.799        33.751      56.111
   35     3208.213 ||    0.034626           0.799        33.755      56.119
   36     3221.520 ||    0.000000           0.000         0.000       0.000
 ----------------------------------------------------------------------------



 vib:animation  F

 Task  times  cpu:       44.6s     wall:       44.6s


                                NWChem Input Module
                                -------------------


 Summary of allocated global arrays
-----------------------------------
  No active global arrays


MA_summarize_allocated_blocks: starting scan ...
MA_summarize_allocated_blocks: scan completed: 0 heap blocks, 0 stack blocks
MA usage statistics:

	allocation statistics:
					      heap	     stack
					      ----	     -----
	current number of blocks	         0	         0
	maximum number of blocks	        26	        62
	current total bytes		         0	         0
	maximum total bytes		  12810016	  66767160
	maximum total K-bytes		     12811	     66768
	maximum total M-bytes		        13	        67


                                     CITATION
                                     --------
                Please cite the following reference when publishing
                           results obtained with NWChem:

          E. Apra, E. J. Bylaska, W. A. de Jong, N. Govind, K. Kowalski,
       T. P. Straatsma, M. Valiev, H. J. J. van Dam, Y. Alexeev, J. Anchell,
       V. Anisimov, F. W. Aquino, R. Atta-Fynn, J. Autschbach, N. P. Bauman,
     J. C. Becca, D. E. Bernholdt, K. Bhaskaran-Nair, S. Bogatko, P. Borowski,
         J. Boschen, J. Brabec, A. Bruner, E. Cauet, Y. Chen, G. N. Chuev,
      C. J. Cramer, J. Daily, M. J. O. Deegan, T. H. Dunning Jr., M. Dupuis,
   K. G. Dyall, G. I. Fann, S. A. Fischer, A. Fonari, H. Fruchtl, L. Gagliardi,
      J. Garza, N. Gawande, S. Ghosh, K. Glaesemann, A. W. Gotz, J. Hammond,
       V. Helms, E. D. Hermes, K. Hirao, S. Hirata, M. Jacquelin, L. Jensen,
   B. G. Johnson, H. Jonsson, R. A. Kendall, M. Klemm, R. Kobayashi, V. Konkov,
      S. Krishnamoorthy, M. Krishnan, Z. Lin, R. D. Lins, R. J. Littlefield,
      A. J. Logsdail, K. Lopata, W. Ma, A. V. Marenich, J. Martin del Campo,
   D. Mejia-Rodriguez, J. E. Moore, J. M. Mullin, T. Nakajima, D. R. Nascimento,
    J. A. Nichols, P. J. Nichols, J. Nieplocha, A. Otero-de-la-Roza, B. Palmer,
    A. Panyala, T. Pirojsirikul, B. Peng, R. Peverati, J. Pittner, L. Pollack,
   R. M. Richard, P. Sadayappan, G. C. Schatz, W. A. Shelton, D. W. Silverstein,
   D. M. A. Smith, T. A. Soares, D. Song, M. Swart, H. L. Taylor, G. S. Thomas,
            V. Tipparaju, D. G. Truhlar, K. Tsemekhman, T. Van Voorhis,
      A. Vazquez-Mayagoitia, P. Verma, O. Villa, A. Vishnu, K. D. Vogiatzis,
        D. Wang, J. H. Weare, M. J. Williamson, T. L. Windus, K. Wolinski,
        A. T. Wong, Q. Wu, C. Yang, Q. Yu, M. Zacharias, Z. Zhang, Y. Zhao,
                                and R. J. Harrison
                        "NWChem: Past, present, and future
                         J. Chem. Phys. 152, 184102 (2020)
                               doi:10.1063/5.0004997

                                      AUTHORS
                                      -------
  E. Apra, E. J. Bylaska, N. Govind, K. Kowalski, M. Valiev, D. Mejia-Rodriguez,
       A. Kunitsa, N. P. Bauman, A. Panyala, W. A. de Jong, T. P. Straatsma,
   H. J. J. van Dam, D. Wang, T. L. Windus, J. Hammond, J. Autschbach, A. Woods,
    K. Bhaskaran-Nair, J. Brabec, K. Lopata, S. A. Fischer, S. Krishnamoorthy,
     M. Jacquelin, W. Ma, M. Klemm, O. Villa, Y. Chen, V. Anisimov, F. Aquino,
     S. Hirata, M. T. Hackler, E. Hermes, L. Jensen, J. E. Moore, J. C. Becca,
      V. Konjkov, T. Risthaus, M. Malagoli, A. Marenich, A. Otero-de-la-Roza,
        J. Mullin, P. Nichols, R. Peverati, J. Pittner, Y. Zhao, P.-D. Fan,
        A. Fonari, M. J. Williamson, R. J. Harrison, J. R. Rehr, M. Dupuis,
     D. Silverstein, D. M. A. Smith, J. Nieplocha, V. Tipparaju, M. Krishnan,
     B. E. Van Kuiken, A. Vazquez-Mayagoitia, M. Swart, Q. Wu, T. Van Voorhis,
     A. A. Auer, M. Nooijen, L. D. Crosby, E. Brown, G. Cisneros, G. I. Fann,
   H. Fruchtl, J. Garza, K. Hirao, R. A. Kendall, J. A. Nichols, K. Tsemekhman,
    K. Wolinski, J. Anchell, D. E. Bernholdt, P. Borowski, T. Clark, D. Clerc,
   H. Dachsel, M. J. O. Deegan, K. Dyall, D. Elwood, E. Glendening, M. Gutowski,
   A. C. Hess, J. Jaffe, B. G. Johnson, J. Ju, R. Kobayashi, R. Kutteh, Z. Lin,
   R. Littlefield, X. Long, B. Meng, T. Nakajima, S. Niu, L. Pollack, M. Rosing,
   K. Glaesemann, G. Sandrone, M. Stave, H. Taylor, G. Thomas, J. H. van Lenthe,
                               A. T. Wong, Z. Zhang.

 Total times  cpu:       52.5s     wall:       52.5s
